********************************************************************************
*                       GENERAL UTILITY LATTICE PROGRAM                        *
*                                 Julian Gale                                  *
*                      Nanochemistry Research Institute                        *
*                           Department of Chemistry                            *
*                    Curtin University, Western Australia                      *
********************************************************************************
* Version = 4.1.0 * Last modified =   7th July 2013                            *
********************************************************************************
*  conv         - constant volume calculation                                  *
*  genetic      - use genetic algorithm to search conformation space           *
*  predict      - use global minimiser                                         *
*  optimise     - will optimise best possible structures found w.r.t. energy   *
*  cost         - will use Pannetier type cost function in global minimisers   *
*  conjugate    - use conjugate gradients minimiser                            *
********************************************************************************
* This version of example24 has been changed by removing the C6                *
* term for the O-O interaction. This caused the energy to tend                 *
* to negative infinity for some configurations.                                *
********************************************************************************


  Job Started  at 17:17.17 29th July       2013                               

  Number of CPUs =     1

  Host name      = M-A0002884.local                        


  Total number of configurations input =   2

********************************************************************************
*  Input for Configuration =   1 : rutile                                      *
********************************************************************************

  Formula = Ti2O4                                                       

  Number of irreducible atoms/shells =       6


  Total number atoms/shells =       6

  Dimensionality = 3               :  Bulk   



  Cartesian lattice vectors (Angstroms) :

        4.492300    0.000000    0.000000
        0.000000    4.492300    0.000000
        0.000000    0.000000    2.893000

  Cell parameters (Angstroms/Degrees):

  a =       4.4923    alpha =  90.0000
  b =       4.4923    beta  =  90.0000
  c =       2.8930    gamma =  90.0000

  Initial cell volume =          58.382937 Angs**3

  Temperature of configuration =  0.000     K 

  Pressure of configuration =         0.000 GPa 



********************************************************************************
*  Input for Configuration =   2 : anatase                                     *
********************************************************************************

  Formula = Ti4O8                                                       

  Number of irreducible atoms/shells =      12


  Total number atoms/shells =      12

  Dimensionality = 3               :  Bulk   



  Cartesian lattice vectors (Angstroms) :

        3.776000    0.000000    0.000000
        0.000000    3.776000    0.000000
        0.000000    0.000000    9.486000

  Cell parameters (Angstroms/Degrees):

  a =       3.7760    alpha =  90.0000
  b =       3.7760    beta  =  90.0000
  c =       9.4860    gamma =  90.0000

  Initial cell volume =         135.253058 Angs**3

  Temperature of configuration =  0.000     K 

  Pressure of configuration =         0.000 GPa 



********************************************************************************
*  General input information                                                   *
********************************************************************************

  Species output for all configurations : 

--------------------------------------------------------------------------------
  Species    Type    Atomic    Atomic    Charge       Radii (Angs)     Library
                     Number     Mass       (e)     Cova   Ionic  VDW   Symbol
--------------------------------------------------------------------------------
    Ti1      Core       22      47.88   4.000000   1.470  0.000  2.190          
    Ti2      Core       22      47.88   4.000000   1.470  0.000  2.190          
    O1       Core        8      16.00  -2.000000   0.730  0.000  1.360          
    O2       Core        8      16.00  -2.000000   0.730  0.000  1.360          
    O3       Core        8      16.00  -2.000000   0.730  0.000  1.360          
    O4       Core        8      16.00  -2.000000   0.730  0.000  1.360          
    Ti3      Core       22      47.88   4.000000   1.470  0.000  2.190          
    Ti4      Core       22      47.88   4.000000   1.470  0.000  2.190          
    O5       Core        8      16.00  -2.000000   0.730  0.000  1.360          
    O6       Core        8      16.00  -2.000000   0.730  0.000  1.360          
    O7       Core        8      16.00  -2.000000   0.730  0.000  1.360          
    O8       Core        8      16.00  -2.000000   0.730  0.000  1.360          
--------------------------------------------------------------------------------


  Lattice summation method               =    Ewald          (3-D)
                                         =    Parry          (2-D)
                                         =    Saunders et al (1-D)
  Accuracy factor for lattice sums       =   12.000


  Time limit = Infinity

  Maximum range for interatomic potentials =    100000.000000 Angstroms

  General interatomic potentials :

--------------------------------------------------------------------------------
Atom  Types   Potential         A         B         C         D     Cutoffs(Ang)
  1     2                                                            Min    Max 
--------------------------------------------------------------------------------
O    c Ti   c Buckingham     754.     0.388      0.00      0.00     0.000 10.000
O    c O    c Buckingham    0.228E+05 0.149      0.00      0.00     0.000 10.000
--------------------------------------------------------------------------------

********************************************************************************
*  Output for configuration   1 : rutile                                       *
********************************************************************************


 Welcome to GULPs General Algorithm for Structure Prediction
              by Simulated Annealing or Genetics!


--------------------------------------------------------------------------------


  Maximum number of cycles     =           300
  Initial #configurations      =           100
  Maximum #configurations      =           100

  Will look for   2 best candidates once all cycles completed

  Difference between best candidates:  0.00000
  Tournament probability       =     0.9000000
  #successful old parents      =             2 (trying again)
  Implementing a one point crossover scheme
  Crossover probability        =     0.5000000
  Mutation probability         =    -1.0000000
  Random number seed           =            -1


 COST FUNCTION

  Will use the following weighted terms to assess the candidate structures

   Weight                 Term
   1.0000    Bond Valence Discrepancy
   0.1000    Cation 1st Coodination Number Discrepancy
   0.2000    Anion  1st Coodination Number Discrepancy
   1.0000    Coulombic Energy between Cations
   1.0000    Coulombic Energy between Anions


  Start of optimisation :

 The number of grid points across the unit cell in
 any one direction has now changed to           16
 Thus pmuta has also changed becoming   1.66666666666666664E-002
  Cycle:    1 Cost fn : Min        45.490000 Max       175.805186 CPU:    0.024
  Cycle:    2 Cost fn : Min        45.490000 Max       111.859905 CPU:    0.032
  Cycle:    3 Cost fn : Min        45.490000 Max       311.770552 CPU:    0.040
  Cycle:    4 Cost fn : Min        45.490000 Max       121.696206 CPU:    0.048
  Cycle:    5 Cost fn : Min        41.606838 Max       568.926143 CPU:    0.055
  Cycle:    6 Cost fn : Min        39.522863 Max        82.448461 CPU:    0.063
  Cycle:    7 Cost fn : Min        38.862953 Max       135.811671 CPU:    0.071
 The number of grid points across the unit cell in
 any one direction has now changed to           32
 Thus pmuta has also changed becoming   1.33333333333333342E-002
  Cycle:    8 Cost fn : Min        37.053700 Max      2900.415065 CPU:    0.079
  Cycle:    9 Cost fn : Min        37.053700 Max       231.303744 CPU:    0.086
  Cycle:   10 Cost fn : Min        31.704732 Max      7195.847668 CPU:    0.095
  Cycle:   11 Cost fn : Min        31.083620 Max      1413.006157 CPU:    0.103
  Cycle:   12 Cost fn : Min        29.976146 Max       134.409109 CPU:    0.111
  Cycle:   13 Cost fn : Min        29.976146 Max        92.961881 CPU:    0.119
  Cycle:   14 Cost fn : Min        29.976146 Max      6856.125057 CPU:    0.127
  Cycle:   15 Cost fn : Min        29.976146 Max      3088.656439 CPU:    0.134
 The number of grid points across the unit cell in
 any one direction has now changed to           64
 Thus pmuta has also changed becoming   1.11111111111111115E-002
  Cycle:   16 Cost fn : Min        29.976146 Max      1289.893371 CPU:    0.142
  Cycle:   17 Cost fn : Min        26.815241 Max       257.246333 CPU:    0.150
  Cycle:   18 Cost fn : Min        26.815241 Max       113.375648 CPU:    0.158
  Cycle:   19 Cost fn : Min        26.704405 Max       131.872170 CPU:    0.166
  Cycle:   20 Cost fn : Min        26.704405 Max       336.154534 CPU:    0.174
  Cycle:   21 Cost fn : Min        26.704405 Max      7074.130722 CPU:    0.182
  Cycle:   22 Cost fn : Min        26.687500 Max       229.041914 CPU:    0.190
  Cycle:   23 Cost fn : Min        23.984733 Max       379.183708 CPU:    0.198
 The number of grid points across the unit cell in
 any one direction has now changed to          128
 Thus pmuta has also changed becoming   9.52380952380952467E-003
  Cycle:   24 Cost fn : Min        23.984733 Max      1068.886494 CPU:    0.206
  Cycle:   25 Cost fn : Min        23.921998 Max      5676.365196 CPU:    0.214
  Cycle:   26 Cost fn : Min        23.921998 Max       364.986823 CPU:    0.222
  Cycle:   27 Cost fn : Min        23.921998 Max       214.690186 CPU:    0.230
  Cycle:   28 Cost fn : Min        23.921998 Max       363.158194 CPU:    0.237
  Cycle:   29 Cost fn : Min        23.806027 Max      2662.731772 CPU:    0.245
  Cycle:   30 Cost fn : Min        23.606892 Max       539.370496 CPU:    0.253
  Cycle:   31 Cost fn : Min        23.606892 Max       137.326633 CPU:    0.261
 The number of grid points across the unit cell in
 any one direction has now changed to          256
 Thus pmuta has also changed becoming   8.33333333333333322E-003
  Cycle:   32 Cost fn : Min        23.606892 Max      5458.842364 CPU:    0.269
  Cycle:   33 Cost fn : Min        23.587361 Max      1235.645399 CPU:    0.277
  Cycle:   34 Cost fn : Min        23.587361 Max       503.788361 CPU:    0.285
  Cycle:   35 Cost fn : Min        23.587361 Max       884.506750 CPU:    0.293
  Cycle:   36 Cost fn : Min        23.528548 Max      1045.000236 CPU:    0.301
  Cycle:   37 Cost fn : Min        23.410923 Max      1214.354323 CPU:    0.310
  Cycle:   38 Cost fn : Min        23.366371 Max        97.118647 CPU:    0.318
  Cycle:   39 Cost fn : Min        23.366371 Max       140.400101 CPU:    0.327
  Cycle:   40 Cost fn : Min        23.309186 Max       273.751645 CPU:    0.335
  Cycle:   41 Cost fn : Min        23.221625 Max       272.748593 CPU:    0.344
  Cycle:   42 Cost fn : Min        23.221625 Max       501.249304 CPU:    0.351
  Cycle:   43 Cost fn : Min        23.221625 Max       135.503793 CPU:    0.359
  Cycle:   44 Cost fn : Min        23.221625 Max      5578.227745 CPU:    0.368
  Cycle:   45 Cost fn : Min        23.221625 Max       377.582235 CPU:    0.376
  Cycle:   46 Cost fn : Min        23.221625 Max       137.966722 CPU:    0.384
  Cycle:   47 Cost fn : Min        23.221625 Max       107.279691 CPU:    0.392
  Cycle:   48 Cost fn : Min        23.221625 Max       106.646460 CPU:    0.400
  Cycle:   49 Cost fn : Min        23.221625 Max      6131.791925 CPU:    0.408
  Cycle:   50 Cost fn : Min        23.221625 Max       328.447949 CPU:    0.416
  Cycle:   51 Cost fn : Min        23.142979 Max      1185.860870 CPU:    0.424
  Cycle:   52 Cost fn : Min        23.142979 Max       125.975985 CPU:    0.432
  Cycle:   53 Cost fn : Min        23.142979 Max     11944.081604 CPU:    0.440
  Cycle:   54 Cost fn : Min        23.142979 Max        65.616932 CPU:    0.448
  Cycle:   55 Cost fn : Min        23.142979 Max       190.085222 CPU:    0.456
  Cycle:   56 Cost fn : Min        23.142979 Max      1775.926867 CPU:    0.465
  Cycle:   57 Cost fn : Min        23.142979 Max       225.109172 CPU:    0.473
  Cycle:   58 Cost fn : Min        23.089672 Max        73.613330 CPU:    0.481
  Cycle:   59 Cost fn : Min        23.089672 Max       135.103407 CPU:    0.489
  Cycle:   60 Cost fn : Min        23.089672 Max      3366.253865 CPU:    0.497
  Cycle:   61 Cost fn : Min        23.089672 Max       130.836973 CPU:    0.506
  Cycle:   62 Cost fn : Min        23.038401 Max       644.765517 CPU:    0.515
  Cycle:   63 Cost fn : Min        22.995543 Max      1369.200809 CPU:    0.523
  Cycle:   64 Cost fn : Min        22.995543 Max      2382.568174 CPU:    0.531
  Cycle:   65 Cost fn : Min        22.995543 Max       119.112725 CPU:    0.539
  Cycle:   66 Cost fn : Min        22.995543 Max       590.738085 CPU:    0.546
  Cycle:   67 Cost fn : Min        22.970886 Max       352.961003 CPU:    0.554
  Cycle:   68 Cost fn : Min        22.970886 Max      4829.438898 CPU:    0.563
  Cycle:   69 Cost fn : Min        22.661127 Max        97.529330 CPU:    0.571
  Cycle:   70 Cost fn : Min        22.661127 Max       488.428440 CPU:    0.579
  Cycle:   71 Cost fn : Min        22.661127 Max      1093.172829 CPU:    0.587
  Cycle:   72 Cost fn : Min        22.586693 Max      1409.249475 CPU:    0.595
  Cycle:   73 Cost fn : Min        22.586693 Max       272.263120 CPU:    0.602
  Cycle:   74 Cost fn : Min        22.292607 Max      4323.564453 CPU:    0.610
  Cycle:   75 Cost fn : Min        22.292607 Max      8292.010817 CPU:    0.618
  Cycle:   76 Cost fn : Min        22.292607 Max       122.064233 CPU:    0.626
  Cycle:   77 Cost fn : Min        22.292607 Max       836.326238 CPU:    0.634
  Cycle:   78 Cost fn : Min        22.292607 Max       272.449424 CPU:    0.642
  Cycle:   79 Cost fn : Min        22.274186 Max       101.042464 CPU:    0.650
  Cycle:   80 Cost fn : Min        22.274186 Max       101.682073 CPU:    0.658
  Cycle:   81 Cost fn : Min        22.261131 Max      5406.181383 CPU:    0.666
  Cycle:   82 Cost fn : Min        22.261131 Max      6754.657415 CPU:    0.674
  Cycle:   83 Cost fn : Min        21.894413 Max       164.975465 CPU:    0.682
  Cycle:   84 Cost fn : Min        21.894413 Max       103.605080 CPU:    0.690
  Cycle:   85 Cost fn : Min        21.894413 Max       111.088536 CPU:    0.698
  Cycle:   86 Cost fn : Min        21.894413 Max      2387.308847 CPU:    0.706
  Cycle:   87 Cost fn : Min        21.894413 Max       183.378012 CPU:    0.714
  Cycle:   88 Cost fn : Min        21.894413 Max       131.339290 CPU:    0.722
  Cycle:   89 Cost fn : Min        21.791350 Max        88.392186 CPU:    0.730
  Cycle:   90 Cost fn : Min        21.791350 Max       152.052769 CPU:    0.738
  Cycle:   91 Cost fn : Min        21.791350 Max       292.672946 CPU:    0.746
  Cycle:   92 Cost fn : Min        21.791350 Max      1985.146218 CPU:    0.754
  Cycle:   93 Cost fn : Min        21.693219 Max       348.358192 CPU:    0.762
  Cycle:   94 Cost fn : Min        21.693219 Max       180.323888 CPU:    0.770
  Cycle:   95 Cost fn : Min        21.693219 Max        91.470422 CPU:    0.778
  Cycle:   96 Cost fn : Min        21.682143 Max       182.424988 CPU:    0.786
  Cycle:   97 Cost fn : Min        21.682143 Max        86.533864 CPU:    0.794
  Cycle:   98 Cost fn : Min        21.682143 Max       626.587158 CPU:    0.801
  Cycle:   99 Cost fn : Min        21.624735 Max        84.925069 CPU:    0.809
  Cycle:  100 Cost fn : Min        21.624735 Max       104.474034 CPU:    0.817
  Cycle:  101 Cost fn : Min        21.624735 Max       450.905098 CPU:    0.825
  Cycle:  102 Cost fn : Min        21.624735 Max      3775.435296 CPU:    0.833
  Cycle:  103 Cost fn : Min        21.624735 Max      1545.947999 CPU:    0.841
  Cycle:  104 Cost fn : Min        21.624735 Max       180.296611 CPU:    0.849
  Cycle:  105 Cost fn : Min        21.624735 Max        87.640317 CPU:    0.857
  Cycle:  106 Cost fn : Min        21.624735 Max        73.376457 CPU:    0.864
  Cycle:  107 Cost fn : Min        21.574926 Max       187.335144 CPU:    0.872
  Cycle:  108 Cost fn : Min        21.574926 Max        86.915875 CPU:    0.880
  Cycle:  109 Cost fn : Min        21.574926 Max        82.823412 CPU:    0.888
  Cycle:  110 Cost fn : Min        21.574926 Max      3368.636953 CPU:    0.896
  Cycle:  111 Cost fn : Min        21.574926 Max      3306.480905 CPU:    0.904
  Cycle:  112 Cost fn : Min        21.574926 Max       163.868666 CPU:    0.911
  Cycle:  113 Cost fn : Min        21.574926 Max      3373.354129 CPU:    0.919
  Cycle:  114 Cost fn : Min        21.574926 Max      7803.405531 CPU:    0.927
  Cycle:  115 Cost fn : Min        21.574926 Max        64.270306 CPU:    0.935
  Cycle:  116 Cost fn : Min        21.477712 Max       410.844887 CPU:    0.942
  Cycle:  117 Cost fn : Min        21.477712 Max        67.915605 CPU:    0.950
  Cycle:  118 Cost fn : Min        21.477712 Max       365.983940 CPU:    0.958
  Cycle:  119 Cost fn : Min        21.477712 Max      1829.715455 CPU:    0.966
  Cycle:  120 Cost fn : Min        21.477712 Max       153.419128 CPU:    0.974
  Cycle:  121 Cost fn : Min        21.477712 Max        96.744079 CPU:    0.982
  Cycle:  122 Cost fn : Min        21.477712 Max        76.997497 CPU:    0.989
  Cycle:  123 Cost fn : Min        21.471647 Max       140.423080 CPU:    0.997
  Cycle:  124 Cost fn : Min        21.469232 Max       865.951582 CPU:    1.005
  Cycle:  125 Cost fn : Min        21.469232 Max       660.802174 CPU:    1.013
  Cycle:  126 Cost fn : Min        21.469232 Max      5894.698146 CPU:    1.020
  Cycle:  127 Cost fn : Min        21.466013 Max      1215.364924 CPU:    1.028
  Cycle:  128 Cost fn : Min        21.466013 Max      1184.798113 CPU:    1.036
  Cycle:  129 Cost fn : Min        21.466013 Max       785.093931 CPU:    1.044
  Cycle:  130 Cost fn : Min        21.466013 Max       755.802133 CPU:    1.051
  Cycle:  131 Cost fn : Min        21.466013 Max       179.796050 CPU:    1.059
  Cycle:  132 Cost fn : Min        21.454267 Max       302.374094 CPU:    1.067
  Cycle:  133 Cost fn : Min        21.454267 Max       345.779610 CPU:    1.075
  Cycle:  134 Cost fn : Min        21.454267 Max       146.992474 CPU:    1.083
  Cycle:  135 Cost fn : Min        21.454267 Max       417.105162 CPU:    1.091
  Cycle:  136 Cost fn : Min        21.454267 Max      2033.500240 CPU:    1.099
  Cycle:  137 Cost fn : Min        21.454267 Max      9169.632558 CPU:    1.106
  Cycle:  138 Cost fn : Min        21.454267 Max       111.871829 CPU:    1.114
  Cycle:  139 Cost fn : Min        21.451083 Max      6153.478116 CPU:    1.123
  Cycle:  140 Cost fn : Min        21.451083 Max      1384.450123 CPU:    1.131
  Cycle:  141 Cost fn : Min        21.448163 Max       419.182316 CPU:    1.139
  Cycle:  142 Cost fn : Min        21.448163 Max       431.861364 CPU:    1.147
  Cycle:  143 Cost fn : Min        21.448163 Max       222.566395 CPU:    1.155
  Cycle:  144 Cost fn : Min        21.448163 Max       169.304734 CPU:    1.163
  Cycle:  145 Cost fn : Min        21.448163 Max      6454.063329 CPU:    1.171
  Cycle:  146 Cost fn : Min        21.448163 Max       114.694914 CPU:    1.179
  Cycle:  147 Cost fn : Min        21.421249 Max       360.005788 CPU:    1.187
  Cycle:  148 Cost fn : Min        21.421249 Max       137.039553 CPU:    1.194
  Cycle:  149 Cost fn : Min        21.399321 Max        63.253824 CPU:    1.202
  Cycle:  150 Cost fn : Min        21.399321 Max       271.717010 CPU:    1.210
  Cycle:  151 Cost fn : Min        21.399321 Max       475.195076 CPU:    1.217
  Cycle:  152 Cost fn : Min        21.399321 Max       104.606363 CPU:    1.225
  Cycle:  153 Cost fn : Min        21.399321 Max      4536.291597 CPU:    1.233
  Cycle:  154 Cost fn : Min        21.397912 Max       166.642481 CPU:    1.241
  Cycle:  155 Cost fn : Min        21.397912 Max       148.952600 CPU:    1.248
  Cycle:  156 Cost fn : Min        21.397912 Max      1068.518974 CPU:    1.256
  Cycle:  157 Cost fn : Min        21.397912 Max      3945.345558 CPU:    1.264
  Cycle:  158 Cost fn : Min        21.397912 Max       631.639473 CPU:    1.272
  Cycle:  159 Cost fn : Min        21.397912 Max      1973.220605 CPU:    1.280
  Cycle:  160 Cost fn : Min        21.397912 Max       112.013890 CPU:    1.288
  Cycle:  161 Cost fn : Min        21.397912 Max       226.420049 CPU:    1.296
  Cycle:  162 Cost fn : Min        21.397912 Max       228.031483 CPU:    1.304
  Cycle:  163 Cost fn : Min        21.397912 Max      2949.238933 CPU:    1.312
  Cycle:  164 Cost fn : Min        21.397912 Max        84.769123 CPU:    1.320
  Cycle:  165 Cost fn : Min        21.397912 Max       235.955413 CPU:    1.329
  Cycle:  166 Cost fn : Min        21.397912 Max       481.208010 CPU:    1.337
  Cycle:  167 Cost fn : Min        21.397912 Max      1407.455408 CPU:    1.345
  Cycle:  168 Cost fn : Min        21.397912 Max       198.857203 CPU:    1.353
  Cycle:  169 Cost fn : Min        21.397912 Max        97.042623 CPU:    1.360
  Cycle:  170 Cost fn : Min        21.397912 Max       148.637698 CPU:    1.369
  Cycle:  171 Cost fn : Min        21.397912 Max      9748.679482 CPU:    1.377
  Cycle:  172 Cost fn : Min        21.397912 Max       214.122606 CPU:    1.385
  Cycle:  173 Cost fn : Min        21.397912 Max        95.948520 CPU:    1.393
  Cycle:  174 Cost fn : Min        21.383720 Max      2776.076447 CPU:    1.401
  Cycle:  175 Cost fn : Min        21.383720 Max      7488.572435 CPU:    1.409
  Cycle:  176 Cost fn : Min        21.383720 Max      3556.300734 CPU:    1.417
  Cycle:  177 Cost fn : Min        21.383720 Max       549.638048 CPU:    1.424
  Cycle:  178 Cost fn : Min        21.383720 Max        77.990802 CPU:    1.432
  Cycle:  179 Cost fn : Min        21.383720 Max        90.702184 CPU:    1.440
  Cycle:  180 Cost fn : Min        21.383720 Max      2097.380396 CPU:    1.448
  Cycle:  181 Cost fn : Min        21.383720 Max       203.181926 CPU:    1.456
  Cycle:  182 Cost fn : Min        21.383720 Max       192.729364 CPU:    1.464
  Cycle:  183 Cost fn : Min        21.383720 Max      3369.477315 CPU:    1.472
  Cycle:  184 Cost fn : Min        21.383720 Max       521.241720 CPU:    1.480
  Cycle:  185 Cost fn : Min        21.383720 Max       159.964021 CPU:    1.488
  Cycle:  186 Cost fn : Min        21.383720 Max       170.167131 CPU:    1.496
  Cycle:  187 Cost fn : Min        21.383720 Max      2926.253229 CPU:    1.504
  Cycle:  188 Cost fn : Min        21.383720 Max        96.814528 CPU:    1.511
  Cycle:  189 Cost fn : Min        21.383720 Max       312.180167 CPU:    1.519
  Cycle:  190 Cost fn : Min        21.383720 Max      3332.614900 CPU:    1.527
  Cycle:  191 Cost fn : Min        21.383720 Max      1062.527825 CPU:    1.535
  Cycle:  192 Cost fn : Min        21.383720 Max        95.849024 CPU:    1.543
  Cycle:  193 Cost fn : Min        21.383720 Max       844.419017 CPU:    1.551
  Cycle:  194 Cost fn : Min        21.383720 Max       501.145985 CPU:    1.559
  Cycle:  195 Cost fn : Min        21.383720 Max       860.859973 CPU:    1.567
  Cycle:  196 Cost fn : Min        21.383720 Max       377.854027 CPU:    1.575
  Cycle:  197 Cost fn : Min        21.383720 Max       219.997755 CPU:    1.583
  Cycle:  198 Cost fn : Min        21.383720 Max      1589.635614 CPU:    1.591
  Cycle:  199 Cost fn : Min        21.383720 Max      3518.810487 CPU:    1.598
  Cycle:  200 Cost fn : Min        21.383720 Max        68.929602 CPU:    1.606
  Cycle:  201 Cost fn : Min        21.383720 Max       150.866585 CPU:    1.614
  Cycle:  202 Cost fn : Min        21.383720 Max      1228.532521 CPU:    1.622
  Cycle:  203 Cost fn : Min        21.383720 Max        68.947141 CPU:    1.630
  Cycle:  204 Cost fn : Min        21.383720 Max        92.527891 CPU:    1.638
  Cycle:  205 Cost fn : Min        21.383720 Max      2144.397240 CPU:    1.646
  Cycle:  206 Cost fn : Min        21.383720 Max       133.150408 CPU:    1.654
  Cycle:  207 Cost fn : Min        21.383720 Max       212.898223 CPU:    1.662
  Cycle:  208 Cost fn : Min        21.383720 Max      2724.451778 CPU:    1.670
  Cycle:  209 Cost fn : Min        21.383720 Max       129.930637 CPU:    1.678
  Cycle:  210 Cost fn : Min        21.383720 Max       171.807120 CPU:    1.686
  Cycle:  211 Cost fn : Min        21.383720 Max       112.399176 CPU:    1.694
  Cycle:  212 Cost fn : Min        21.383720 Max       210.773158 CPU:    1.701
  Cycle:  213 Cost fn : Min        21.383720 Max      2145.837345 CPU:    1.709
  Cycle:  214 Cost fn : Min        21.383720 Max      1956.555975 CPU:    1.717
  Cycle:  215 Cost fn : Min        21.383720 Max      1103.134901 CPU:    1.725
  Cycle:  216 Cost fn : Min        21.383720 Max      1027.857865 CPU:    1.733
  Cycle:  217 Cost fn : Min        21.383720 Max      6209.757584 CPU:    1.741
  Cycle:  218 Cost fn : Min        21.383720 Max      1177.034458 CPU:    1.749
  Cycle:  219 Cost fn : Min        21.383720 Max       688.661544 CPU:    1.757
  Cycle:  220 Cost fn : Min        21.381291 Max       990.479666 CPU:    1.765
  Cycle:  221 Cost fn : Min        21.381291 Max      2914.226147 CPU:    1.773
  Cycle:  222 Cost fn : Min        21.381291 Max       123.797322 CPU:    1.781
  Cycle:  223 Cost fn : Min        21.381291 Max      5357.718456 CPU:    1.789
  Cycle:  224 Cost fn : Min        21.381291 Max       145.845955 CPU:    1.797
  Cycle:  225 Cost fn : Min        21.381291 Max        84.158536 CPU:    1.805
  Cycle:  226 Cost fn : Min        21.381291 Max      4599.060761 CPU:    1.813
  Cycle:  227 Cost fn : Min        21.381291 Max        99.437283 CPU:    1.821
  Cycle:  228 Cost fn : Min        21.381291 Max       743.424037 CPU:    1.829
  Cycle:  229 Cost fn : Min        21.381291 Max      1396.410130 CPU:    1.837
  Cycle:  230 Cost fn : Min        21.381291 Max        83.050355 CPU:    1.844
  Cycle:  231 Cost fn : Min        21.381291 Max      2323.234053 CPU:    1.852
  Cycle:  232 Cost fn : Min        21.381291 Max      4262.115546 CPU:    1.860
  Cycle:  233 Cost fn : Min        21.381291 Max       481.689986 CPU:    1.868
  Cycle:  234 Cost fn : Min        21.381291 Max       100.571525 CPU:    1.876
  Cycle:  235 Cost fn : Min        21.381291 Max       144.255324 CPU:    1.884
  Cycle:  236 Cost fn : Min        21.381291 Max        68.318899 CPU:    1.892
  Cycle:  237 Cost fn : Min        21.381291 Max       306.442025 CPU:    1.900
  Cycle:  238 Cost fn : Min        21.381291 Max       265.458603 CPU:    1.908
  Cycle:  239 Cost fn : Min        21.381291 Max      3142.759800 CPU:    1.916
  Cycle:  240 Cost fn : Min        21.381291 Max      2577.244797 CPU:    1.924
  Cycle:  241 Cost fn : Min        21.381291 Max        67.651738 CPU:    1.932
  Cycle:  242 Cost fn : Min        21.381291 Max       250.555532 CPU:    1.940
  Cycle:  243 Cost fn : Min        21.381291 Max        79.833682 CPU:    1.948
  Cycle:  244 Cost fn : Min        21.381291 Max      5803.939767 CPU:    1.956
  Cycle:  245 Cost fn : Min        21.381291 Max       122.192619 CPU:    1.964
  Cycle:  246 Cost fn : Min        21.381291 Max        98.146492 CPU:    1.972
  Cycle:  247 Cost fn : Min        21.381291 Max       169.448515 CPU:    1.980
  Cycle:  248 Cost fn : Min        21.381291 Max       116.012063 CPU:    1.988
  Cycle:  249 Cost fn : Min        21.381291 Max       711.054613 CPU:    1.995
  Cycle:  250 Cost fn : Min        21.381291 Max       116.195878 CPU:    2.003
  Cycle:  251 Cost fn : Min        21.381291 Max        69.250554 CPU:    2.011
  Cycle:  252 Cost fn : Min        21.381291 Max        79.873415 CPU:    2.019
  Cycle:  253 Cost fn : Min        21.381291 Max       184.402533 CPU:    2.027
  Cycle:  254 Cost fn : Min        21.381291 Max       180.595791 CPU:    2.034
  Cycle:  255 Cost fn : Min        21.381291 Max      3711.657576 CPU:    2.042
  Cycle:  256 Cost fn : Min        21.381291 Max       106.803815 CPU:    2.050
  Cycle:  257 Cost fn : Min        21.381291 Max        98.086045 CPU:    2.058
  Cycle:  258 Cost fn : Min        21.381291 Max        71.172824 CPU:    2.067
  Cycle:  259 Cost fn : Min        21.381291 Max       760.484568 CPU:    2.075
  Cycle:  260 Cost fn : Min        21.381291 Max     11379.238013 CPU:    2.083
  Cycle:  261 Cost fn : Min        21.381291 Max       826.957081 CPU:    2.092
  Cycle:  262 Cost fn : Min        21.381291 Max       274.158617 CPU:    2.100
  Cycle:  263 Cost fn : Min        21.381291 Max       265.510323 CPU:    2.108
  Cycle:  264 Cost fn : Min        21.381291 Max       481.399115 CPU:    2.115
  Cycle:  265 Cost fn : Min        21.381291 Max        99.166015 CPU:    2.123
  Cycle:  266 Cost fn : Min        21.381291 Max      1137.098946 CPU:    2.131
  Cycle:  267 Cost fn : Min        21.381291 Max       140.160697 CPU:    2.139
  Cycle:  268 Cost fn : Min        21.381291 Max      2795.000440 CPU:    2.147
  ************  STUCK  *******************************************************
  ************  CHANGING GRID SIZE *******************************************
  Cycle:  269 Cost fn : Min        21.381291 Max       379.657124 CPU:    2.156
  Cycle:  270 Cost fn : Min        21.381291 Max       200.075055 CPU:    2.164
  Cycle:  271 Cost fn : Min        21.381291 Max     16913.396313 CPU:    2.172
 The number of grid points across the unit cell in
 any one direction has now changed to           32
 Thus pmuta has also changed becoming   1.33333333333333342E-002
  Cycle:  272 Cost fn : Min        21.381291 Max      2077.895254 CPU:    2.181
  Cycle:  273 Cost fn : Min        21.381291 Max      3626.663288 CPU:    2.189
  Cycle:  274 Cost fn : Min        21.381291 Max       120.354906 CPU:    2.197
  Cycle:  275 Cost fn : Min        21.381291 Max       407.148724 CPU:    2.205
  Cycle:  276 Cost fn : Min        21.381291 Max        74.662190 CPU:    2.213
  Cycle:  277 Cost fn : Min        21.381291 Max     31848.372972 CPU:    2.221
  Cycle:  278 Cost fn : Min        21.369219 Max        97.173908 CPU:    2.229
  Cycle:  279 Cost fn : Min        21.369219 Max       947.684962 CPU:    2.237
 The number of grid points across the unit cell in
 any one direction has now changed to           64
 Thus pmuta has also changed becoming   1.11111111111111115E-002
  Cycle:  280 Cost fn : Min        21.369219 Max       105.804763 CPU:    2.245
  Cycle:  281 Cost fn : Min        21.369219 Max       126.899245 CPU:    2.253
  Cycle:  282 Cost fn : Min        21.369219 Max       392.421724 CPU:    2.261
  Cycle:  283 Cost fn : Min        21.369219 Max       187.996221 CPU:    2.269
  Cycle:  284 Cost fn : Min        21.369219 Max       175.748516 CPU:    2.276
  Cycle:  285 Cost fn : Min        21.369219 Max       146.102474 CPU:    2.284
  Cycle:  286 Cost fn : Min        21.359165 Max       561.343788 CPU:    2.292
  Cycle:  287 Cost fn : Min        21.359165 Max      3491.332833 CPU:    2.300
 The number of grid points across the unit cell in
 any one direction has now changed to          128
 Thus pmuta has also changed becoming   9.52380952380952467E-003
  Cycle:  288 Cost fn : Min        21.359165 Max      2998.750910 CPU:    2.309
  Cycle:  289 Cost fn : Min        21.359165 Max      3776.049279 CPU:    2.317
  Cycle:  290 Cost fn : Min        21.359165 Max       617.909201 CPU:    2.326
  Cycle:  291 Cost fn : Min        21.359165 Max       119.586311 CPU:    2.334
  Cycle:  292 Cost fn : Min        21.311293 Max      1390.158025 CPU:    2.342
  Cycle:  293 Cost fn : Min        21.311293 Max       199.512016 CPU:    2.350
  Cycle:  294 Cost fn : Min        21.311293 Max       949.104329 CPU:    2.358
  Cycle:  295 Cost fn : Min        21.311293 Max       225.183829 CPU:    2.366
 The number of grid points across the unit cell in
 any one direction has now changed to          256
 Thus pmuta has also changed becoming   8.33333333333333322E-003
  Cycle:  296 Cost fn : Min        21.311293 Max       102.186631 CPU:    2.374
  Cycle:  297 Cost fn : Min        21.311293 Max      1287.282441 CPU:    2.382
  Cycle:  298 Cost fn : Min        21.311293 Max      2745.062542 CPU:    2.390
  Cycle:  299 Cost fn : Min        21.311293 Max       633.292248 CPU:    2.397
  Cycle:  300 Cost fn : Min        21.311293 Max      1297.636807 CPU:    2.405


  Best configurations from genetic algorithm optimisation :

--------------------------------------------------------------------------------
                                1            2
--------------------------------------------------------------------------------
  Sum of squares =            21.31129     21.31129
--------------------------------------------------------------------------------
  1  Fractional    2 x        0.50000      0.50000
  2  Fractional    2 y        0.50000      0.50000
  3  Fractional    2 z        0.49609      0.49609
  4  Fractional    3 x        0.53516      0.53516
  5  Fractional    3 y        0.84766      0.84766
  6  Fractional    3 z        0.34375      0.34375
  7  Fractional    4 x        0.93750      0.93750
  8  Fractional    4 y        0.33984      0.33984
  9  Fractional    4 z        0.07422      0.07422
 10  Fractional    5 x        0.17188      0.17188
 11  Fractional    5 y        0.74609      0.74609
 12  Fractional    5 z        0.37500      0.37500
 13  Fractional    6 x        0.59375      0.59375
 14  Fractional    6 y        0.25000      0.25000
 15  Fractional    6 z        0.96875      0.96875
--------------------------------------------------------------------------------




  Time for Global Optimiser  =        2.4018   seconds

++++++++++++++++++++++++++++++++++++++++++++++++++++++++++++++++++++++++++++++++
################################################################################
                     0  structures optimised out of            2
################################################################################
++++++++++++++++++++++++++++++++++++++++++++++++++++++++++++++++++++++++++++++++

  Components of energy : 

--------------------------------------------------------------------------------
  Interatomic potentials     =        8060.71729972 eV
  Monopole - monopole (real) =         384.94480200 eV
  Monopole - monopole (recip)=        -170.64595353 eV
  Monopole - monopole (total)=         214.29884847 eV
--------------------------------------------------------------------------------
  Total lattice energy       =        8275.01614819 eV
--------------------------------------------------------------------------------
  Total lattice energy       =          798412.5631 kJ/(mole unit cells)
--------------------------------------------------------------------------------


  Number of variables =       15

  Maximum number of calculations  =          1000
  Maximum Hessian update interval =            10
  Maximum step size               =   1.000000000
  Maximum parameter tolerance     =   0.000010000
  Maximum function  tolerance     =   0.000010000
  Maximum gradient  tolerance     =   0.001000000
  Maximum gradient  component     =   0.010000000

  Symmetry not applied to optimisation

  Conjugate gradient optimiser to be used

  Start of bulk optimisation :

  Cycle:      0 Energy:      8275.016148  Gnorm:  12319.399116  CPU:    2.403
  Cycle:      1 Energy:      3893.499772  Gnorm:   6031.497930  CPU:    2.405
  Cycle:      2 Energy:      2295.032964  Gnorm:   2936.532614  CPU:    2.407
  Cycle:      3 Energy:      1475.423046  Gnorm:   1878.555855  CPU:    2.408
  Cycle:      4 Energy:      1011.286117  Gnorm:   1262.280577  CPU:    2.410
  Cycle:      5 Energy:       654.451185  Gnorm:    841.491152  CPU:    2.411
  Cycle:      6 Energy:       433.786716  Gnorm:    567.715813  CPU:    2.413
  Cycle:      7 Energy:       241.009331  Gnorm:    370.734238  CPU:    2.415
  Cycle:      8 Energy:        74.622505  Gnorm:    215.828825  CPU:    2.417
  Cycle:      9 Energy:      -162.187328  Gnorm:     17.087151  CPU:    2.419
  Cycle:     10 Energy:      -172.116152  Gnorm:     12.310442  CPU:    2.420
  Cycle:     11 Energy:      -181.229959  Gnorm:      9.063246  CPU:    2.421
  Cycle:     12 Energy:      -186.597558  Gnorm:      5.848900  CPU:    2.423
  Cycle:     13 Energy:      -189.261510  Gnorm:      3.402373  CPU:    2.424
  Cycle:     14 Energy:      -191.084251  Gnorm:      5.273248  CPU:    2.425
  Cycle:     15 Energy:      -195.129219  Gnorm:      1.427950  CPU:    2.426
  Cycle:     16 Energy:      -195.302921  Gnorm:      0.978171  CPU:    2.427
  Cycle:     17 Energy:      -195.481662  Gnorm:      0.868580  CPU:    2.428
  Cycle:     18 Energy:      -195.621652  Gnorm:      1.204526  CPU:    2.429
  Cycle:     19 Energy:      -195.952339  Gnorm:      1.955919  CPU:    2.431
  Cycle:     20 Energy:      -196.310699  Gnorm:      1.489700  CPU:    2.432
  Cycle:     21 Energy:      -197.080904  Gnorm:      3.125394  CPU:    2.433
  Cycle:     22 Energy:      -198.053795  Gnorm:      2.473694  CPU:    2.434
  Cycle:     23 Energy:      -201.066399  Gnorm:      4.643274  CPU:    2.436
  Cycle:     24 Energy:      -202.603308  Gnorm:      3.577692  CPU:    2.437
  Cycle:     25 Energy:      -204.124399  Gnorm:      2.163911  CPU:    2.438
  Cycle:     26 Energy:      -205.153518  Gnorm:      1.425750  CPU:    2.439
  Cycle:     27 Energy:      -205.398734  Gnorm:      0.818986  CPU:    2.440
  Cycle:     28 Energy:      -205.597042  Gnorm:      0.918341  CPU:    2.441
  Cycle:     29 Energy:      -205.814686  Gnorm:      0.770907  CPU:    2.442
  Cycle:     30 Energy:      -205.903932  Gnorm:      0.602668  CPU:    2.443
  Cycle:     31 Energy:      -205.991502  Gnorm:      0.623063  CPU:    2.444
  Cycle:     32 Energy:      -206.271696  Gnorm:      0.804012  CPU:    2.446
  Cycle:     33 Energy:      -206.799646  Gnorm:      1.312891  CPU:    2.447
  Cycle:     34 Energy:      -207.546305  Gnorm:      1.216663  CPU:    2.448
  Cycle:     35 Energy:      -207.830637  Gnorm:      1.051860  CPU:    2.449
  Cycle:     36 Energy:      -208.041697  Gnorm:      0.598717  CPU:    2.450
  Cycle:     37 Energy:      -208.098375  Gnorm:      0.502046  CPU:    2.451
  Cycle:     38 Energy:      -208.310240  Gnorm:      1.049364  CPU:    2.453
  Cycle:     39 Energy:      -209.997584  Gnorm:      2.955141  CPU:    2.455
  Cycle:     40 Energy:      -216.132563  Gnorm:      3.126906  CPU:    2.457
  Cycle:     41 Energy:      -217.394479  Gnorm:      1.166603  CPU:    2.458
  Cycle:     42 Energy:      -217.731929  Gnorm:      0.594385  CPU:    2.459
  Cycle:     43 Energy:      -217.782989  Gnorm:      0.270204  CPU:    2.460
  Cycle:     44 Energy:      -217.839365  Gnorm:      0.470341  CPU:    2.462
  Cycle:     45 Energy:      -218.064683  Gnorm:      0.568492  CPU:    2.463
  Cycle:     46 Energy:      -218.486287  Gnorm:      0.927096  CPU:    2.465
  Cycle:     47 Energy:      -219.274415  Gnorm:      1.194700  CPU:    2.466
  Cycle:     48 Energy:      -220.137076  Gnorm:      1.275273  CPU:    2.467
  Cycle:     49 Energy:      -220.714371  Gnorm:      1.121080  CPU:    2.468
  Cycle:     50 Energy:      -221.066000  Gnorm:      0.756550  CPU:    2.469
  Cycle:     51 Energy:      -221.295428  Gnorm:      0.641371  CPU:    2.470
  Cycle:     52 Energy:      -221.533877  Gnorm:      0.224471  CPU:    2.472
  Cycle:     53 Energy:      -221.539205  Gnorm:      0.151228  CPU:    2.473
  Cycle:     54 Energy:      -221.551470  Gnorm:      0.125913  CPU:    2.474
  Cycle:     55 Energy:      -221.557496  Gnorm:      0.140668  CPU:    2.475
  Cycle:     56 Energy:      -221.563575  Gnorm:      0.066628  CPU:    2.476
  Cycle:     57 Energy:      -221.564174  Gnorm:      0.015059  CPU:    2.477
  Cycle:     58 Energy:      -221.564232  Gnorm:      0.010175  CPU:    2.478
  Cycle:     59 Energy:      -221.564252  Gnorm:      0.005069  CPU:    2.479
  Cycle:     60 Energy:      -221.564260  Gnorm:      0.003741  CPU:    2.480
  Cycle:     61 Energy:      -221.564265  Gnorm:      0.003105  CPU:    2.481
  Cycle:     62 Energy:      -221.564269  Gnorm:      0.002425  CPU:    2.482
  Cycle:     63 Energy:      -221.564271  Gnorm:      0.002012  CPU:    2.483
  Cycle:     64 Energy:      -221.564273  Gnorm:      0.001725  CPU:    2.484
  Cycle:     65 Energy:      -221.564274  Gnorm:      0.001477  CPU:    2.485
  Cycle:     66 Energy:      -221.564275  Gnorm:      0.001271  CPU:    2.486
  Cycle:     67 Energy:      -221.564276  Gnorm:      0.001111  CPU:    2.487


  **** Optimisation achieved ****


  Final energy =    -221.56427635 eV
  Final Gnorm  =       0.00098461

  Components of energy : 

--------------------------------------------------------------------------------
  Interatomic potentials     =          68.00484427 eV
  Monopole - monopole (real) =         -85.83098291 eV
  Monopole - monopole (recip)=        -203.73813770 eV
  Monopole - monopole (total)=        -289.56912062 eV
--------------------------------------------------------------------------------
  Total lattice energy       =        -221.56427635 eV
--------------------------------------------------------------------------------
  Total lattice energy       =          -21377.5657 kJ/(mole unit cells)
--------------------------------------------------------------------------------

  Final fractional coordinates of atoms :

--------------------------------------------------------------------------------
   No.  Atomic        x           y          z          Radius
        Label       (Frac)      (Frac)     (Frac)       (Angs) 
--------------------------------------------------------------------------------
     1  Ti1   c     0.000000    0.000000    0.000000    0.000000
     2  Ti2   c     0.499998    0.499989    0.500211    0.000000
     3  O1    c     0.309802    0.690215    0.000211    0.000000
     4  O2    c     0.690186    0.309727    0.000225    0.000000
     5  O3    c     0.190190    0.190224    0.500155    0.000000
     6  O4    c     0.809799    0.809729    0.500151    0.000000
--------------------------------------------------------------------------------

  Final internal derivatives :

--------------------------------------------------------------------------------
   No.  Atomic          a             b             c           Radius
        Label          (eV)          (eV)          (eV)        (eV/Angs)
--------------------------------------------------------------------------------
      1 Ti1   c       0.000000      0.000000      0.000000      0.000000
      2 Ti2   c      -0.000208     -0.000940      0.005602      0.000000
      3 O1    c       0.003149     -0.002503      0.005264      0.000000
      4 O2    c      -0.004520     -0.002517      0.006407      0.000000
      5 O3    c      -0.000638      0.001772      0.004374      0.000000
      6 O4    c      -0.000622     -0.005892      0.004042      0.000000
--------------------------------------------------------------------------------
  Maximum abs         0.004520      0.005892      0.006407      0.000000
--------------------------------------------------------------------------------


  Time to end of optimisation =       2.4888 seconds

++++++++++++++++++++++++++++++++++++++++++++++++++++++++++++++++++++++++++++++++
################################################################################
                     1  structures optimised out of            2
################################################################################
++++++++++++++++++++++++++++++++++++++++++++++++++++++++++++++++++++++++++++++++

  Components of energy : 

--------------------------------------------------------------------------------
  Interatomic potentials     =          68.00484427 eV
  Monopole - monopole (real) =         -85.83098291 eV
  Monopole - monopole (recip)=        -203.73813770 eV
  Monopole - monopole (total)=        -289.56912062 eV
--------------------------------------------------------------------------------
  Total lattice energy       =        -221.56427635 eV
--------------------------------------------------------------------------------
  Total lattice energy       =          -21377.5657 kJ/(mole unit cells)
--------------------------------------------------------------------------------


  Number of variables =       15

  Maximum number of calculations  =          1000
  Maximum Hessian update interval =            10
  Maximum step size               =   1.000000000
  Maximum parameter tolerance     =   0.000010000
  Maximum function  tolerance     =   0.000010000
  Maximum gradient  tolerance     =   0.001000000
  Maximum gradient  component     =   0.010000000

  Symmetry not applied to optimisation

  Conjugate gradient optimiser to be used

  Start of bulk optimisation :

  Cycle:      0 Energy:      -221.564276  Gnorm:      0.000985  CPU:    2.489


  **** Optimisation achieved ****


  Final energy =    -221.56427635 eV
  Final Gnorm  =       0.00098461

  Components of energy : 

--------------------------------------------------------------------------------
  Interatomic potentials     =          68.00484427 eV
  Monopole - monopole (real) =         -85.83098291 eV
  Monopole - monopole (recip)=        -203.73813770 eV
  Monopole - monopole (total)=        -289.56912062 eV
--------------------------------------------------------------------------------
  Total lattice energy       =        -221.56427635 eV
--------------------------------------------------------------------------------
  Total lattice energy       =          -21377.5657 kJ/(mole unit cells)
--------------------------------------------------------------------------------

  Final fractional coordinates of atoms :

--------------------------------------------------------------------------------
   No.  Atomic        x           y          z          Radius
        Label       (Frac)      (Frac)     (Frac)       (Angs) 
--------------------------------------------------------------------------------
     1  Ti1   c     0.000000    0.000000    0.000000    0.000000
     2  Ti2   c     0.499998    0.499989    0.500211    0.000000
     3  O1    c     0.309802    0.690215    0.000211    0.000000
     4  O2    c     0.690186    0.309727    0.000225    0.000000
     5  O3    c     0.190190    0.190224    0.500155    0.000000
     6  O4    c     0.809799    0.809729    0.500151    0.000000
--------------------------------------------------------------------------------

  Final internal derivatives :

--------------------------------------------------------------------------------
   No.  Atomic          a             b             c           Radius
        Label          (eV)          (eV)          (eV)        (eV/Angs)
--------------------------------------------------------------------------------
      1 Ti1   c       0.000000      0.000000      0.000000      0.000000
      2 Ti2   c      -0.000208     -0.000940      0.005602      0.000000
      3 O1    c       0.003149     -0.002503      0.005264      0.000000
      4 O2    c      -0.004520     -0.002517      0.006407      0.000000
      5 O3    c      -0.000638      0.001772      0.004374      0.000000
      6 O4    c      -0.000622     -0.005892      0.004042      0.000000
--------------------------------------------------------------------------------
  Maximum abs         0.004520      0.005892      0.006407      0.000000
--------------------------------------------------------------------------------


  Time to end of optimisation =       2.4899 seconds



  XTL file written for configuration    1 as ruti01_1.xtl                  
  XTL file written for configuration    2 as ruti01_2.xtl                  

********************************************************************************
*  Output for configuration   2 : anatase                                      *
********************************************************************************



  Maximum number of cycles     =           300
  Initial #configurations      =           100
  Maximum #configurations      =           100

  Will look for   2 best candidates once all cycles completed

  Difference between best candidates:  0.00000
  Tournament probability       =     0.9000000
  #successful old parents      =             2 (trying again)
  Implementing a one point crossover scheme
  Crossover probability        =     0.5000000
  Mutation probability         =    -1.0000000
  Random number seed           =            -1


 COST FUNCTION

  Will use the following weighted terms to assess the candidate structures

   Weight                 Term
   1.0000    Bond Valence Discrepancy
   0.1000    Cation 1st Coodination Number Discrepancy
   0.2000    Anion  1st Coodination Number Discrepancy
   1.0000    Coulombic Energy between Cations
   1.0000    Coulombic Energy between Anions


  Start of optimisation :

 The number of grid points across the unit cell in
 any one direction has now changed to           16
 Thus pmuta has also changed becoming   7.57575757575757597E-003
  Cycle:    1 Cost fn : Min       252.937699 Max      4039.478943 CPU:    2.549
  Cycle:    2 Cost fn : Min       252.937699 Max       910.675436 CPU:    2.577
  Cycle:    3 Cost fn : Min       225.893481 Max      2743.877342 CPU:    2.605
  Cycle:    4 Cost fn : Min       225.893481 Max      1053.753955 CPU:    2.632
  Cycle:    5 Cost fn : Min       225.893481 Max      9455.097843 CPU:    2.660
  Cycle:    6 Cost fn : Min       225.893481 Max     12726.785366 CPU:    2.688
  Cycle:    7 Cost fn : Min       225.893481 Max       817.294284 CPU:    2.716
 The number of grid points across the unit cell in
 any one direction has now changed to           32
 Thus pmuta has also changed becoming   6.06060606060606060E-003
  Cycle:    8 Cost fn : Min       225.893481 Max       445.848243 CPU:    2.744
  Cycle:    9 Cost fn : Min       224.654361 Max      6357.494973 CPU:    2.772
  Cycle:   10 Cost fn : Min       223.089553 Max      2758.397480 CPU:    2.799
  Cycle:   11 Cost fn : Min       212.654715 Max       382.224610 CPU:    2.827
  Cycle:   12 Cost fn : Min       210.551201 Max      9116.869610 CPU:    2.855
  Cycle:   13 Cost fn : Min       210.551201 Max      5868.224265 CPU:    2.883
  Cycle:   14 Cost fn : Min       210.377570 Max      4023.085651 CPU:    2.911
  Cycle:   15 Cost fn : Min       202.352943 Max       418.008788 CPU:    2.939
 The number of grid points across the unit cell in
 any one direction has now changed to           64
 Thus pmuta has also changed becoming   5.05050505050505093E-003
  Cycle:   16 Cost fn : Min       202.352943 Max       388.978411 CPU:    2.967
  Cycle:   17 Cost fn : Min       202.352943 Max       444.706395 CPU:    2.996
  Cycle:   18 Cost fn : Min       201.866968 Max      3319.645726 CPU:    3.023
  Cycle:   19 Cost fn : Min       201.866968 Max      7294.501906 CPU:    3.051
  Cycle:   20 Cost fn : Min       199.912023 Max       389.182766 CPU:    3.080
  Cycle:   21 Cost fn : Min       199.912023 Max       402.054588 CPU:    3.108
  Cycle:   22 Cost fn : Min       198.068920 Max      3554.881624 CPU:    3.136
  Cycle:   23 Cost fn : Min       198.068920 Max      1875.226685 CPU:    3.165
 The number of grid points across the unit cell in
 any one direction has now changed to          128
 Thus pmuta has also changed becoming   4.32900432900432900E-003
  Cycle:   24 Cost fn : Min       198.068920 Max      2740.422692 CPU:    3.195
  Cycle:   25 Cost fn : Min       197.695296 Max      2784.946559 CPU:    3.223
  Cycle:   26 Cost fn : Min       195.535376 Max     15698.402213 CPU:    3.251
  Cycle:   27 Cost fn : Min       195.535376 Max       562.912603 CPU:    3.279
  Cycle:   28 Cost fn : Min       193.671769 Max       659.511563 CPU:    3.307
  Cycle:   29 Cost fn : Min       193.671769 Max      9332.740836 CPU:    3.336
  Cycle:   30 Cost fn : Min       193.671769 Max      5592.379378 CPU:    3.364
  Cycle:   31 Cost fn : Min       193.671769 Max      6702.923678 CPU:    3.393
 The number of grid points across the unit cell in
 any one direction has now changed to          256
 Thus pmuta has also changed becoming   3.78787878787878798E-003
  Cycle:   32 Cost fn : Min       193.671769 Max      3611.737504 CPU:    3.421
  Cycle:   33 Cost fn : Min       193.529971 Max       623.634424 CPU:    3.449
  Cycle:   34 Cost fn : Min       193.529971 Max      6205.754433 CPU:    3.477
  Cycle:   35 Cost fn : Min       192.040791 Max      2296.278049 CPU:    3.505
  Cycle:   36 Cost fn : Min       192.040791 Max      2392.227726 CPU:    3.534
  Cycle:   37 Cost fn : Min       192.040791 Max      1466.566532 CPU:    3.562
  Cycle:   38 Cost fn : Min       191.891009 Max       387.787502 CPU:    3.591
  Cycle:   39 Cost fn : Min       190.817460 Max      2355.365176 CPU:    3.619
  Cycle:   40 Cost fn : Min       188.958200 Max       958.298048 CPU:    3.648
  Cycle:   41 Cost fn : Min       188.958200 Max      5286.184207 CPU:    3.676
  Cycle:   42 Cost fn : Min       188.958200 Max      1288.504181 CPU:    3.704
  Cycle:   43 Cost fn : Min       188.958200 Max      2477.716468 CPU:    3.732
  Cycle:   44 Cost fn : Min       188.958200 Max       964.917279 CPU:    3.761
  Cycle:   45 Cost fn : Min       188.598458 Max      1853.161633 CPU:    3.789
  Cycle:   46 Cost fn : Min       187.637844 Max       518.108224 CPU:    3.818
  Cycle:   47 Cost fn : Min       187.637844 Max      5513.990701 CPU:    3.846
  Cycle:   48 Cost fn : Min       187.637844 Max       349.134450 CPU:    3.874
  Cycle:   49 Cost fn : Min       187.637844 Max       292.071558 CPU:    3.903
  Cycle:   50 Cost fn : Min       183.659640 Max       372.533472 CPU:    3.931
  Cycle:   51 Cost fn : Min       183.659640 Max       306.477281 CPU:    3.960
  Cycle:   52 Cost fn : Min       183.659640 Max      1396.002391 CPU:    3.988
  Cycle:   53 Cost fn : Min       183.659640 Max      9911.374558 CPU:    4.016
  Cycle:   54 Cost fn : Min       182.906768 Max       314.325967 CPU:    4.045
  Cycle:   55 Cost fn : Min       182.906768 Max       974.591589 CPU:    4.073
  Cycle:   56 Cost fn : Min       182.868269 Max       517.636191 CPU:    4.101
  Cycle:   57 Cost fn : Min       182.868269 Max      2600.531971 CPU:    4.129
  Cycle:   58 Cost fn : Min       182.868269 Max       666.927047 CPU:    4.158
  Cycle:   59 Cost fn : Min       180.943430 Max       879.032313 CPU:    4.186
  Cycle:   60 Cost fn : Min       180.283483 Max      2275.456101 CPU:    4.216
  Cycle:   61 Cost fn : Min       179.961592 Max      1185.503792 CPU:    4.244
  Cycle:   62 Cost fn : Min       179.961592 Max      4746.788600 CPU:    4.273
  Cycle:   63 Cost fn : Min       179.961592 Max      3995.316519 CPU:    4.302
  Cycle:   64 Cost fn : Min       179.961592 Max       724.169950 CPU:    4.331
  Cycle:   65 Cost fn : Min       179.961592 Max       780.576594 CPU:    4.360
  Cycle:   66 Cost fn : Min       179.961592 Max      9217.912750 CPU:    4.388
  Cycle:   67 Cost fn : Min       179.938024 Max       442.827545 CPU:    4.416
  Cycle:   68 Cost fn : Min       178.898861 Max      1659.333568 CPU:    4.444
  Cycle:   69 Cost fn : Min       178.898861 Max      1116.458892 CPU:    4.472
  Cycle:   70 Cost fn : Min       178.898861 Max       640.369204 CPU:    4.500
  Cycle:   71 Cost fn : Min       177.797030 Max      8865.879465 CPU:    4.528
  Cycle:   72 Cost fn : Min       177.797030 Max      1240.617489 CPU:    4.557
  Cycle:   73 Cost fn : Min       176.844836 Max       445.766035 CPU:    4.585
  Cycle:   74 Cost fn : Min       176.844836 Max      1930.052126 CPU:    4.613
  Cycle:   75 Cost fn : Min       176.844836 Max       578.315118 CPU:    4.641
  Cycle:   76 Cost fn : Min       176.844836 Max       609.099161 CPU:    4.669
  Cycle:   77 Cost fn : Min       176.844836 Max       805.423393 CPU:    4.698
  Cycle:   78 Cost fn : Min       175.416209 Max       253.512276 CPU:    4.726
  Cycle:   79 Cost fn : Min       175.416209 Max       330.770234 CPU:    4.754
  Cycle:   80 Cost fn : Min       173.867463 Max      1318.473042 CPU:    4.783
  Cycle:   81 Cost fn : Min       173.867463 Max       395.782400 CPU:    4.811
  Cycle:   82 Cost fn : Min       173.867463 Max       877.341913 CPU:    4.839
  Cycle:   83 Cost fn : Min       173.859598 Max      7431.069789 CPU:    4.867
  Cycle:   84 Cost fn : Min       173.793243 Max      1201.490972 CPU:    4.896
  Cycle:   85 Cost fn : Min       173.793243 Max       918.299096 CPU:    4.924
  Cycle:   86 Cost fn : Min       173.698291 Max       502.437463 CPU:    4.952
  Cycle:   87 Cost fn : Min       173.252522 Max     13151.506086 CPU:    4.980
  Cycle:   88 Cost fn : Min       173.252522 Max       784.372737 CPU:    5.009
  Cycle:   89 Cost fn : Min       173.252522 Max      1671.955376 CPU:    5.037
  Cycle:   90 Cost fn : Min       173.252522 Max       410.712150 CPU:    5.065
  Cycle:   91 Cost fn : Min       173.128601 Max       491.386233 CPU:    5.094
  Cycle:   92 Cost fn : Min       172.973381 Max       313.947706 CPU:    5.122
  Cycle:   93 Cost fn : Min       172.973381 Max      2891.962648 CPU:    5.150
  Cycle:   94 Cost fn : Min       172.670332 Max      4070.080069 CPU:    5.179
  Cycle:   95 Cost fn : Min       172.670332 Max      3675.917430 CPU:    5.208
  Cycle:   96 Cost fn : Min       172.460086 Max      1810.837460 CPU:    5.237
  Cycle:   97 Cost fn : Min       172.460086 Max      1736.157271 CPU:    5.266
  Cycle:   98 Cost fn : Min       171.835981 Max       322.422465 CPU:    5.295
  Cycle:   99 Cost fn : Min       171.835981 Max       304.592909 CPU:    5.324
  Cycle:  100 Cost fn : Min       171.835981 Max      5769.343335 CPU:    5.352
  Cycle:  101 Cost fn : Min       171.835981 Max      8224.451568 CPU:    5.381
  Cycle:  102 Cost fn : Min       171.835981 Max      1326.298356 CPU:    5.409
  Cycle:  103 Cost fn : Min       171.835981 Max      2720.260958 CPU:    5.437
  Cycle:  104 Cost fn : Min       171.835981 Max      7688.152935 CPU:    5.466
  Cycle:  105 Cost fn : Min       171.835981 Max       952.342670 CPU:    5.494
  Cycle:  106 Cost fn : Min       171.835981 Max       296.704327 CPU:    5.522
  Cycle:  107 Cost fn : Min       171.835981 Max      2143.049956 CPU:    5.551
  Cycle:  108 Cost fn : Min       171.835981 Max      1125.147295 CPU:    5.579
  Cycle:  109 Cost fn : Min       171.835981 Max      2036.791992 CPU:    5.607
  Cycle:  110 Cost fn : Min       171.801602 Max      1937.138349 CPU:    5.635
  Cycle:  111 Cost fn : Min       171.801602 Max      5175.527122 CPU:    5.664
  Cycle:  112 Cost fn : Min       171.801602 Max      3902.455433 CPU:    5.692
  Cycle:  113 Cost fn : Min       171.801602 Max       532.979196 CPU:    5.720
  Cycle:  114 Cost fn : Min       171.801602 Max       605.276377 CPU:    5.749
  Cycle:  115 Cost fn : Min       171.801602 Max      1994.693579 CPU:    5.777
  Cycle:  116 Cost fn : Min       171.801602 Max       429.707280 CPU:    5.805
  Cycle:  117 Cost fn : Min       171.801602 Max       468.264703 CPU:    5.834
  Cycle:  118 Cost fn : Min       171.457882 Max       351.184816 CPU:    5.862
  Cycle:  119 Cost fn : Min       171.457882 Max       382.914891 CPU:    5.890
  Cycle:  120 Cost fn : Min       171.457882 Max      2172.478683 CPU:    5.919
  Cycle:  121 Cost fn : Min       171.457882 Max      1103.408018 CPU:    5.947
  Cycle:  122 Cost fn : Min       171.457882 Max      4544.929430 CPU:    5.975
  Cycle:  123 Cost fn : Min       171.250801 Max       641.702484 CPU:    6.003
  Cycle:  124 Cost fn : Min       171.250801 Max     14980.158281 CPU:    6.032
  Cycle:  125 Cost fn : Min       171.250801 Max      7617.884511 CPU:    6.060
  Cycle:  126 Cost fn : Min       171.250801 Max      1343.028467 CPU:    6.089
  Cycle:  127 Cost fn : Min       171.250801 Max       798.176573 CPU:    6.117
  Cycle:  128 Cost fn : Min       171.250801 Max       459.675084 CPU:    6.145
  Cycle:  129 Cost fn : Min       171.250801 Max       458.325944 CPU:    6.174
  Cycle:  130 Cost fn : Min       171.250801 Max      1039.852724 CPU:    6.202
  Cycle:  131 Cost fn : Min       171.217048 Max       332.688033 CPU:    6.230
  Cycle:  132 Cost fn : Min       171.217048 Max      1126.626692 CPU:    6.259
  Cycle:  133 Cost fn : Min       171.217048 Max      1846.318537 CPU:    6.288
  Cycle:  134 Cost fn : Min       171.173391 Max      6886.413159 CPU:    6.317
  Cycle:  135 Cost fn : Min       171.173391 Max      1921.538119 CPU:    6.345
  Cycle:  136 Cost fn : Min       171.173391 Max       595.615430 CPU:    6.374
  Cycle:  137 Cost fn : Min       171.041531 Max      1023.389035 CPU:    6.403
  Cycle:  138 Cost fn : Min       171.041531 Max      1553.155849 CPU:    6.432
  Cycle:  139 Cost fn : Min       170.756951 Max      1835.386724 CPU:    6.461
  Cycle:  140 Cost fn : Min       170.756951 Max       477.395755 CPU:    6.490
  Cycle:  141 Cost fn : Min       170.756951 Max       300.204840 CPU:    6.519
  Cycle:  142 Cost fn : Min       170.496765 Max      4909.256955 CPU:    6.547
  Cycle:  143 Cost fn : Min       170.496765 Max      2044.621257 CPU:    6.576
  Cycle:  144 Cost fn : Min       170.496765 Max       416.166817 CPU:    6.604
  Cycle:  145 Cost fn : Min       170.496765 Max       401.788851 CPU:    6.632
  Cycle:  146 Cost fn : Min       170.496765 Max       303.094675 CPU:    6.660
  Cycle:  147 Cost fn : Min       170.496765 Max      2802.517398 CPU:    6.688
  Cycle:  148 Cost fn : Min       170.333004 Max      3000.529104 CPU:    6.717
  Cycle:  149 Cost fn : Min       170.333004 Max       478.445206 CPU:    6.745
  Cycle:  150 Cost fn : Min       170.333004 Max       270.059921 CPU:    6.773
  Cycle:  151 Cost fn : Min       170.333004 Max       337.564488 CPU:    6.801
  Cycle:  152 Cost fn : Min       170.333004 Max       948.568084 CPU:    6.830
  Cycle:  153 Cost fn : Min       170.333004 Max       474.904067 CPU:    6.858
  Cycle:  154 Cost fn : Min       169.561798 Max       332.629892 CPU:    6.886
  Cycle:  155 Cost fn : Min       169.561798 Max       381.245703 CPU:    6.914
  Cycle:  156 Cost fn : Min       169.561798 Max      1504.028162 CPU:    6.942
  Cycle:  157 Cost fn : Min       169.561798 Max       426.398351 CPU:    6.971
  Cycle:  158 Cost fn : Min       169.561798 Max      2804.959675 CPU:    6.999
  Cycle:  159 Cost fn : Min       169.561798 Max      3369.037213 CPU:    7.027
  Cycle:  160 Cost fn : Min       169.561798 Max      1664.996782 CPU:    7.055
  Cycle:  161 Cost fn : Min       169.561798 Max     10150.689023 CPU:    7.083
  Cycle:  162 Cost fn : Min       169.561798 Max       446.780879 CPU:    7.112
  Cycle:  163 Cost fn : Min       169.561798 Max       358.672808 CPU:    7.140
  Cycle:  164 Cost fn : Min       169.561798 Max       658.434281 CPU:    7.168
  Cycle:  165 Cost fn : Min       169.561798 Max      1868.516481 CPU:    7.196
  Cycle:  166 Cost fn : Min       169.561798 Max       917.295574 CPU:    7.224
  Cycle:  167 Cost fn : Min       169.561798 Max       700.822415 CPU:    7.253
  Cycle:  168 Cost fn : Min       169.561798 Max     12204.214052 CPU:    7.282
  Cycle:  169 Cost fn : Min       169.479242 Max       491.251440 CPU:    7.311
  Cycle:  170 Cost fn : Min       169.479242 Max       454.309400 CPU:    7.340
  Cycle:  171 Cost fn : Min       169.439442 Max       393.485429 CPU:    7.369
  Cycle:  172 Cost fn : Min       169.439442 Max      5547.953547 CPU:    7.397
  Cycle:  173 Cost fn : Min       169.439442 Max       601.066998 CPU:    7.425
  Cycle:  174 Cost fn : Min       169.439442 Max       723.355790 CPU:    7.453
  Cycle:  175 Cost fn : Min       169.359521 Max       432.370703 CPU:    7.481
  Cycle:  176 Cost fn : Min       169.334183 Max      3738.862551 CPU:    7.509
  Cycle:  177 Cost fn : Min       169.334183 Max       855.500182 CPU:    7.538
  Cycle:  178 Cost fn : Min       169.334183 Max      3122.772961 CPU:    7.566
  Cycle:  179 Cost fn : Min       169.312771 Max      5734.609703 CPU:    7.595
  Cycle:  180 Cost fn : Min       169.312771 Max       656.701883 CPU:    7.623
  Cycle:  181 Cost fn : Min       169.266890 Max      1385.751730 CPU:    7.651
  Cycle:  182 Cost fn : Min       169.080531 Max      6727.759964 CPU:    7.679
  Cycle:  183 Cost fn : Min       169.059120 Max       784.463781 CPU:    7.707
  Cycle:  184 Cost fn : Min       169.059120 Max      2154.066399 CPU:    7.736
  Cycle:  185 Cost fn : Min       168.971808 Max       293.721739 CPU:    7.765
  Cycle:  186 Cost fn : Min       168.971808 Max       819.601375 CPU:    7.793
  Cycle:  187 Cost fn : Min       168.944001 Max       820.230973 CPU:    7.821
  Cycle:  188 Cost fn : Min       168.944001 Max       365.391699 CPU:    7.850
  Cycle:  189 Cost fn : Min       168.620755 Max      2379.037523 CPU:    7.878
  Cycle:  190 Cost fn : Min       168.620755 Max      1304.976792 CPU:    7.906
  Cycle:  191 Cost fn : Min       168.616626 Max       636.281992 CPU:    7.934
  Cycle:  192 Cost fn : Min       168.616626 Max      1853.655100 CPU:    7.962
  Cycle:  193 Cost fn : Min       168.510464 Max     11693.519064 CPU:    7.991
  Cycle:  194 Cost fn : Min       168.396908 Max       558.496859 CPU:    8.019
  Cycle:  195 Cost fn : Min       168.396908 Max       736.000414 CPU:    8.047
  Cycle:  196 Cost fn : Min       168.396908 Max      7742.708220 CPU:    8.075
  Cycle:  197 Cost fn : Min       168.396908 Max      2057.585360 CPU:    8.104
  Cycle:  198 Cost fn : Min       168.396908 Max       594.751867 CPU:    8.132
  Cycle:  199 Cost fn : Min       168.320020 Max      3842.786589 CPU:    8.160
  Cycle:  200 Cost fn : Min       168.320020 Max       784.811853 CPU:    8.189
  Cycle:  201 Cost fn : Min       168.320020 Max       363.870073 CPU:    8.217
  Cycle:  202 Cost fn : Min       168.244203 Max      8782.244351 CPU:    8.245
  Cycle:  203 Cost fn : Min       168.244203 Max      2087.807149 CPU:    8.273
  Cycle:  204 Cost fn : Min       168.244203 Max       572.994468 CPU:    8.303
  Cycle:  205 Cost fn : Min       168.244203 Max      4379.758174 CPU:    8.333
  Cycle:  206 Cost fn : Min       168.186810 Max       690.807282 CPU:    8.363
  Cycle:  207 Cost fn : Min       167.879551 Max      4396.955181 CPU:    8.391
  Cycle:  208 Cost fn : Min       167.879551 Max      8112.977633 CPU:    8.419
  Cycle:  209 Cost fn : Min       167.879551 Max      3707.351005 CPU:    8.447
  Cycle:  210 Cost fn : Min       167.879551 Max      1295.255826 CPU:    8.475
  Cycle:  211 Cost fn : Min       167.878786 Max       560.770509 CPU:    8.504
  Cycle:  212 Cost fn : Min       167.831796 Max       488.530087 CPU:    8.533
  Cycle:  213 Cost fn : Min       167.831796 Max       529.172918 CPU:    8.561
  Cycle:  214 Cost fn : Min       167.831796 Max       505.736777 CPU:    8.589
  Cycle:  215 Cost fn : Min       167.330469 Max       487.043180 CPU:    8.618
  Cycle:  216 Cost fn : Min       167.330469 Max      5179.470663 CPU:    8.646
  Cycle:  217 Cost fn : Min       167.330469 Max      2891.130139 CPU:    8.674
  Cycle:  218 Cost fn : Min       166.688761 Max      1012.939182 CPU:    8.703
  Cycle:  219 Cost fn : Min       166.688761 Max      7690.079352 CPU:    8.732
  Cycle:  220 Cost fn : Min       166.688761 Max      2851.409444 CPU:    8.762
  Cycle:  221 Cost fn : Min       166.688761 Max       264.594642 CPU:    8.792
  Cycle:  222 Cost fn : Min       166.485251 Max       362.653085 CPU:    8.822
  Cycle:  223 Cost fn : Min       166.485251 Max      3119.897802 CPU:    8.850
  Cycle:  224 Cost fn : Min       166.256385 Max       637.595937 CPU:    8.880
  Cycle:  225 Cost fn : Min       166.256385 Max       670.241080 CPU:    8.908
  Cycle:  226 Cost fn : Min       166.256385 Max       426.213019 CPU:    8.936
  Cycle:  227 Cost fn : Min       165.758947 Max       333.095874 CPU:    8.965
  Cycle:  228 Cost fn : Min       165.753620 Max      2543.368831 CPU:    8.994
  Cycle:  229 Cost fn : Min       165.427824 Max       333.474226 CPU:    9.022
  Cycle:  230 Cost fn : Min       165.003347 Max       326.687706 CPU:    9.050
  Cycle:  231 Cost fn : Min       165.003347 Max       451.844896 CPU:    9.079
  Cycle:  232 Cost fn : Min       165.003347 Max      5333.845094 CPU:    9.107
  Cycle:  233 Cost fn : Min       165.003347 Max      4544.039742 CPU:    9.136
  Cycle:  234 Cost fn : Min       165.003347 Max       253.863754 CPU:    9.164
  Cycle:  235 Cost fn : Min       164.313548 Max       781.686182 CPU:    9.192
  Cycle:  236 Cost fn : Min       164.313548 Max      2258.137980 CPU:    9.220
  Cycle:  237 Cost fn : Min       164.313548 Max      1943.614207 CPU:    9.248
  Cycle:  238 Cost fn : Min       164.279975 Max      1320.423712 CPU:    9.276
  Cycle:  239 Cost fn : Min       164.279975 Max     14073.995775 CPU:    9.305
  Cycle:  240 Cost fn : Min       163.759490 Max      8620.230271 CPU:    9.334
  Cycle:  241 Cost fn : Min       163.759490 Max      9771.483552 CPU:    9.362
  Cycle:  242 Cost fn : Min       163.759490 Max      5865.413955 CPU:    9.390
  Cycle:  243 Cost fn : Min       163.737775 Max      1740.915207 CPU:    9.418
  Cycle:  244 Cost fn : Min       163.737775 Max      6222.183562 CPU:    9.447
  Cycle:  245 Cost fn : Min       163.737775 Max      7608.787850 CPU:    9.475
  Cycle:  246 Cost fn : Min       163.737775 Max      4585.041918 CPU:    9.503
  Cycle:  247 Cost fn : Min       163.737775 Max      8669.396151 CPU:    9.531
  Cycle:  248 Cost fn : Min       163.700376 Max       736.158274 CPU:    9.560
  Cycle:  249 Cost fn : Min       163.681962 Max       768.036249 CPU:    9.588
  Cycle:  250 Cost fn : Min       163.681962 Max      1214.785752 CPU:    9.616
  Cycle:  251 Cost fn : Min       163.681962 Max       578.964115 CPU:    9.644
  Cycle:  252 Cost fn : Min       163.681962 Max     12059.903865 CPU:    9.672
  Cycle:  253 Cost fn : Min       163.681962 Max      1087.941212 CPU:    9.701
  Cycle:  254 Cost fn : Min       163.681962 Max      9004.799818 CPU:    9.729
  Cycle:  255 Cost fn : Min       163.653127 Max      1803.924356 CPU:    9.757
  Cycle:  256 Cost fn : Min       163.653127 Max       802.234018 CPU:    9.785
  Cycle:  257 Cost fn : Min       163.653127 Max       294.729056 CPU:    9.813
  Cycle:  258 Cost fn : Min       163.653127 Max      3065.491887 CPU:    9.841
  Cycle:  259 Cost fn : Min       163.576339 Max       300.363176 CPU:    9.870
  Cycle:  260 Cost fn : Min       163.576339 Max      5649.576785 CPU:    9.899
  Cycle:  261 Cost fn : Min       163.576339 Max      1704.324562 CPU:    9.927
  Cycle:  262 Cost fn : Min       163.560226 Max      1002.489805 CPU:    9.956
  Cycle:  263 Cost fn : Min       163.560226 Max      3249.555702 CPU:    9.984
  Cycle:  264 Cost fn : Min       159.735799 Max      3590.196974 CPU:   10.012
  Cycle:  265 Cost fn : Min       159.735799 Max      3075.071324 CPU:   10.040
  Cycle:  266 Cost fn : Min       159.735799 Max      8229.762074 CPU:   10.068
  Cycle:  267 Cost fn : Min       159.735799 Max       517.651483 CPU:   10.097
  Cycle:  268 Cost fn : Min       159.517904 Max       813.945118 CPU:   10.125
  Cycle:  269 Cost fn : Min       159.517904 Max      5435.894702 CPU:   10.153
  Cycle:  270 Cost fn : Min       159.517904 Max       309.244572 CPU:   10.181
  Cycle:  271 Cost fn : Min       159.247494 Max      7671.623857 CPU:   10.209
  Cycle:  272 Cost fn : Min       159.128833 Max       542.905182 CPU:   10.237
  Cycle:  273 Cost fn : Min       159.128833 Max      2612.933442 CPU:   10.265
  Cycle:  274 Cost fn : Min       159.128833 Max      3663.682688 CPU:   10.293
  Cycle:  275 Cost fn : Min       159.128833 Max       729.755277 CPU:   10.323
  Cycle:  276 Cost fn : Min       159.128833 Max      2280.365981 CPU:   10.351
  Cycle:  277 Cost fn : Min       159.128833 Max       415.952442 CPU:   10.379
  Cycle:  278 Cost fn : Min       159.128833 Max       809.428496 CPU:   10.407
  Cycle:  279 Cost fn : Min       158.825810 Max       457.685359 CPU:   10.435
  Cycle:  280 Cost fn : Min       158.749902 Max       746.098049 CPU:   10.463
  Cycle:  281 Cost fn : Min       158.749902 Max      1556.286643 CPU:   10.491
  Cycle:  282 Cost fn : Min       158.516434 Max       245.789641 CPU:   10.519
  Cycle:  283 Cost fn : Min       158.516434 Max      5868.737527 CPU:   10.548
  Cycle:  284 Cost fn : Min       158.516434 Max       578.632307 CPU:   10.576
  Cycle:  285 Cost fn : Min       158.516434 Max       405.913881 CPU:   10.604
  Cycle:  286 Cost fn : Min       158.335933 Max       295.483575 CPU:   10.632
  Cycle:  287 Cost fn : Min       158.263206 Max      1425.413813 CPU:   10.660
  Cycle:  288 Cost fn : Min       158.143140 Max      1122.064510 CPU:   10.688
  Cycle:  289 Cost fn : Min       158.143140 Max      8436.817386 CPU:   10.717
  Cycle:  290 Cost fn : Min       158.143140 Max      1660.245549 CPU:   10.745
  Cycle:  291 Cost fn : Min       158.143140 Max      1356.171324 CPU:   10.773
  Cycle:  292 Cost fn : Min       158.143140 Max       990.860437 CPU:   10.801
  Cycle:  293 Cost fn : Min       158.143140 Max       795.727567 CPU:   10.830
  Cycle:  294 Cost fn : Min       156.963638 Max       403.885300 CPU:   10.858
  Cycle:  295 Cost fn : Min       156.963638 Max       416.454118 CPU:   10.886
  Cycle:  296 Cost fn : Min       156.963638 Max      3519.550105 CPU:   10.915
  Cycle:  297 Cost fn : Min       156.632290 Max       319.124514 CPU:   10.944
  Cycle:  298 Cost fn : Min       156.632290 Max       315.697554 CPU:   10.972
  Cycle:  299 Cost fn : Min       156.632290 Max      1715.953700 CPU:   11.000
  Cycle:  300 Cost fn : Min       156.580404 Max     14499.917397 CPU:   11.028


  Best configurations from genetic algorithm optimisation :

--------------------------------------------------------------------------------
                                1            2
--------------------------------------------------------------------------------
  Sum of squares =           156.58040    156.60137
--------------------------------------------------------------------------------
  1  Fractional    2 x        0.46484      0.46484
  2  Fractional    2 y        0.07031      0.07031
  3  Fractional    2 z        0.35156      0.35156
  4  Fractional    3 x        0.57813      0.57813
  5  Fractional    3 y        0.18359      0.18359
  6  Fractional    3 z        0.53516      0.53516
  7  Fractional    4 x        0.78125      0.78125
  8  Fractional    4 y        0.84375      0.84375
  9  Fractional    4 z        0.73438      0.73438
 10  Fractional    5 x        0.85938      0.85938
 11  Fractional    5 y        0.92578      0.92578
 12  Fractional    5 z        0.36328      0.36328
 13  Fractional    6 x        0.87891      0.87891
 14  Fractional    6 y        0.26563      0.26563
 15  Fractional    6 z        0.84766      0.84766
 16  Fractional    7 x        0.00000      0.00000
 17  Fractional    7 y        0.27734      0.27734
 18  Fractional    7 z        0.53906      0.53906
 19  Fractional    8 x        0.42578      0.42578
 20  Fractional    8 y        0.36719      0.36719
 21  Fractional    8 z        0.68750      0.68750
 22  Fractional    9 x        0.33594      0.33594
 23  Fractional    9 y        0.25000      0.25000
 24  Fractional    9 z        0.95313      0.95313
 25  Fractional   10 x        0.23828      0.23828
 26  Fractional   10 y        0.83203      0.83203
 27  Fractional   10 z        0.19141      0.19141
 28  Fractional   11 x        0.87500      0.87500
 29  Fractional   11 y        0.43750      0.43750
 30  Fractional   11 z        0.75000      0.75000
 31  Fractional   12 x        0.21484      0.21484
 32  Fractional   12 y        0.14063      0.14063
 33  Fractional   12 z        0.14844      0.14844
--------------------------------------------------------------------------------




  Time for Global Optimiser  =       11.0245   seconds

++++++++++++++++++++++++++++++++++++++++++++++++++++++++++++++++++++++++++++++++
################################################################################
                     0  structures optimised out of            2
################################################################################
++++++++++++++++++++++++++++++++++++++++++++++++++++++++++++++++++++++++++++++++

  Components of energy : 

--------------------------------------------------------------------------------
  Interatomic potentials     =       83893.20706794 eV
  Monopole - monopole (real) =        4001.84108943 eV
  Monopole - monopole (recip)=          -5.32203719 eV
  Monopole - monopole (total)=        3996.51905224 eV
--------------------------------------------------------------------------------
  Total lattice energy       =       87889.72612019 eV
--------------------------------------------------------------------------------
  Total lattice energy       =         8480015.0531 kJ/(mole unit cells)
--------------------------------------------------------------------------------


  Number of variables =       33

  Maximum number of calculations  =          1000
  Maximum Hessian update interval =            10
  Maximum step size               =   1.000000000
  Maximum parameter tolerance     =   0.000010000
  Maximum function  tolerance     =   0.000010000
  Maximum gradient  tolerance     =   0.001000000
  Maximum gradient  component     =   0.010000000

  Symmetry not applied to optimisation

  Conjugate gradient optimiser to be used

  Start of bulk optimisation :

  Cycle:      0 Energy:     87889.726120  Gnorm:  51915.154867  CPU:   11.026
  Cycle:      1 Energy:     44227.639112  Gnorm:  23453.955660  CPU:   11.030
  Cycle:      2 Energy:     28701.767056  Gnorm:  17819.548096  CPU:   11.034
  Cycle:      3 Energy:     21743.528614  Gnorm:  10994.574455  CPU:   11.038
  Cycle:      4 Energy:     18637.314721  Gnorm:   8462.377250  CPU:   11.041
  Cycle:      5 Energy:     16514.369139  Gnorm:   7532.915501  CPU:   11.044
  Cycle:      6 Energy:     14879.580739  Gnorm:   6169.199834  CPU:   11.047
  Cycle:      7 Energy:     13506.160635  Gnorm:   5732.990495  CPU:   11.051
  Cycle:      8 Energy:     12335.727894  Gnorm:   4931.900578  CPU:   11.054
  Cycle:      9 Energy:     11251.256407  Gnorm:   4721.985551  CPU:   11.058
  Cycle:     10 Energy:     10332.395240  Gnorm:   4001.160458  CPU:   11.061
  Cycle:     11 Energy:      9361.247594  Gnorm:   4194.487560  CPU:   11.064
  Cycle:     12 Energy:      8375.693627  Gnorm:   3491.986347  CPU:   11.068
  Cycle:     13 Energy:      7412.573043  Gnorm:   3453.250068  CPU:   11.071
  Cycle:     14 Energy:      6209.401130  Gnorm:   3288.169839  CPU:   11.075
  Cycle:     15 Energy:      4613.084434  Gnorm:   3027.310841  CPU:   11.079
  Cycle:     16 Energy:      2267.136052  Gnorm:   2360.133776  CPU:   11.084
  Cycle:     17 Energy:       153.869698  Gnorm:    287.258706  CPU:   11.089
[...]
  Cycle:     56 Energy:      -436.870682  Gnorm:      0.327920  CPU:   11.203
  Cycle:     57 Energy:      -436.899778  Gnorm:      0.507387  CPU:   11.206
  Cycle:     58 Energy:      -437.058882  Gnorm:      1.622503  CPU:   11.209
  Cycle:     59 Energy:      -437.880258  Gnorm:      2.197750  CPU:   11.213
  Cycle:     60 Energy:      -437.880258  Gnorm:      2.197750  CPU:   11.215
  Cycle:     61 Energy:      -437.880258  Gnorm:      2.197750  CPU:   11.218
  Cycle:     62 Energy:      -437.880258  Gnorm:      2.197750  CPU:   11.220
  Cycle:     63 Energy:      -437.880258  Gnorm:      2.197750  CPU:   11.222
  Cycle:     64 Energy:      -437.880258  Gnorm:      2.197750  CPU:   11.225
  Cycle:     65 Energy:      -437.880258  Gnorm:      2.197750  CPU:   11.227
  Cycle:     66 Energy:      -437.880258  Gnorm:      2.197750  CPU:   11.230
  Cycle:     67 Energy:      -437.880258  Gnorm:      2.197750  CPU:   11.232
  Cycle:     68 Energy:      -437.880258  Gnorm:      2.197750  CPU:   11.235
  Cycle:     69 Energy:      -437.880258  Gnorm:      2.197750  CPU:   11.237
  Cycle:     70 Energy:      -437.880258  Gnorm:      2.197750  CPU:   11.240


  **** Too many failed attempts to optimise ****

  Final energy =    -437.88025790 eV
  Final Gnorm  =       2.19774970

  Components of energy : 

--------------------------------------------------------------------------------
  Interatomic potentials     =         124.64468667 eV
  Monopole - monopole (real) =        -232.41025585 eV
  Monopole - monopole (recip)=        -330.11468872 eV
  Monopole - monopole (total)=        -562.52494456 eV
--------------------------------------------------------------------------------
  Total lattice energy       =        -437.88025790 eV
--------------------------------------------------------------------------------
  Total lattice energy       =          -42248.7513 kJ/(mole unit cells)
--------------------------------------------------------------------------------

  Final fractional coordinates of atoms :

--------------------------------------------------------------------------------
   No.  Atomic        x           y          z          Radius
        Label       (Frac)      (Frac)     (Frac)       (Angs) 
--------------------------------------------------------------------------------
     1  Ti1   c     0.000000    0.000000    0.000000    0.000000
     2  Ti2   c     0.581535    0.581535    0.732983    0.000000
     3  Ti3   c     0.080572    0.080572    0.476495    0.000000
     4  Ti4   c     0.539255    0.539255    0.238021    0.000000
     5  O1    c     0.307086    0.307086    0.627570    0.000000
     6  O2    c     0.876118    0.876118    0.332175    0.000000
     7  O3    c     0.382418    0.382418    0.380172    0.000000
     8  O4    c     0.696831    0.696831    0.087933    0.000000
     9  O5    c     0.209254    0.209254    0.140537    0.000000
    10  O6    c     0.387096    0.387096    0.887338    0.000000
    11  O7    c     0.895785    0.895785    0.843270    0.000000
    12  O8    c     0.800137    0.800137    0.588182    0.000000
--------------------------------------------------------------------------------

  Final internal derivatives :

--------------------------------------------------------------------------------
   No.  Atomic          a             b             c           Radius
        Label          (eV)          (eV)          (eV)        (eV/Angs)
--------------------------------------------------------------------------------
      1 Ti1   c       0.000000      0.000000      0.000000      0.000000
      2 Ti2   c       1.728975      1.728975    -27.696883      0.000000
      3 Ti3   c       0.323946      0.323946    -45.405366      0.000000
      4 Ti4   c      -1.624792     -1.624792     27.263764      0.000000
      5 O1    c       1.896008      1.896008     20.301785      0.000000
      6 O2    c       3.018168      3.018168      3.237468      0.000000
      7 O3    c       5.544016      5.544016    -10.938461      0.000000
      8 O4    c      -6.772103     -6.772103    -14.762025      0.000000
      9 O5    c      -1.191413     -1.191413    -11.011393      0.000000
     10 O6    c       0.300735      0.300735      1.026030      0.000000
     11 O7    c       7.668693      7.668693     17.503776      0.000000
     12 O8    c      -0.579805     -0.579805     13.697708      0.000000
--------------------------------------------------------------------------------
  Maximum abs         7.668693      7.668693     45.405366      0.000000
--------------------------------------------------------------------------------


  Time to end of optimisation =      11.2432 seconds

++++++++++++++++++++++++++++++++++++++++++++++++++++++++++++++++++++++++++++++++
################################################################################
                     1  structures optimised out of            2
################################################################################
++++++++++++++++++++++++++++++++++++++++++++++++++++++++++++++++++++++++++++++++

  Components of energy : 

--------------------------------------------------------------------------------
  Interatomic potentials     =         124.64468667 eV
  Monopole - monopole (real) =        -232.41025585 eV
  Monopole - monopole (recip)=        -330.11468872 eV
  Monopole - monopole (total)=        -562.52494456 eV
--------------------------------------------------------------------------------
  Total lattice energy       =        -437.88025790 eV
--------------------------------------------------------------------------------
  Total lattice energy       =          -42248.7513 kJ/(mole unit cells)
--------------------------------------------------------------------------------


  Number of variables =       33

  Maximum number of calculations  =          1000
  Maximum Hessian update interval =            10
  Maximum step size               =   1.000000000
  Maximum parameter tolerance     =   0.000010000
  Maximum function  tolerance     =   0.000010000
  Maximum gradient  tolerance     =   0.001000000
  Maximum gradient  component     =   0.010000000

  Symmetry not applied to optimisation

  Conjugate gradient optimiser to be used

  Start of bulk optimisation :

  Cycle:      0 Energy:      -437.880258  Gnorm:      2.197750  CPU:   11.245
  Cycle:      1 Energy:      -438.192888  Gnorm:      1.045561  CPU:   11.247
  Cycle:      2 Energy:      -438.385829  Gnorm:      0.935965  CPU:   11.251
  Cycle:      3 Energy:      -438.498062  Gnorm:      0.663155  CPU:   11.253
  Cycle:      4 Energy:      -438.769041  Gnorm:      1.067819  CPU:   11.256
  Cycle:      5 Energy:      -438.972649  Gnorm:      1.206528  CPU:   11.259
  Cycle:      6 Energy:      -439.130245  Gnorm:      0.729820  CPU:   11.261
  Cycle:      7 Energy:      -439.245283  Gnorm:      0.578217  CPU:   11.264
  Cycle:      8 Energy:      -439.303651  Gnorm:      0.488252  CPU:   11.266
  Cycle:      9 Energy:      -439.352990  Gnorm:      0.594040  CPU:   11.269
  Cycle:     10 Energy:      -439.391718  Gnorm:      0.442661  CPU:   11.271
  Cycle:     11 Energy:      -439.420451  Gnorm:      0.372691  CPU:   11.274
  Cycle:     12 Energy:      -439.454665  Gnorm:      0.494048  CPU:   11.276
  Cycle:     13 Energy:      -439.501871  Gnorm:      0.470098  CPU:   11.279
  Cycle:     14 Energy:      -439.713839  Gnorm:      0.725742  CPU:   11.282
  Cycle:     15 Energy:      -439.770216  Gnorm:      0.524855  CPU:   11.285
  Cycle:     16 Energy:      -439.820909  Gnorm:      0.599886  CPU:   11.288
  Cycle:     17 Energy:      -439.885917  Gnorm:      0.617450  CPU:   11.291
  Cycle:     18 Energy:      -440.008636  Gnorm:      0.604553  CPU:   11.293
  Cycle:     19 Energy:      -440.085524  Gnorm:      0.713585  CPU:   11.296
  Cycle:     20 Energy:      -440.134171  Gnorm:      0.392978  CPU:   11.299
  Cycle:     21 Energy:      -440.159768  Gnorm:      0.230041  CPU:   11.302
  Cycle:     22 Energy:      -440.169464  Gnorm:      0.234751  CPU:   11.305
  Cycle:     23 Energy:      -440.175778  Gnorm:      0.180107  CPU:   11.308
  Cycle:     24 Energy:      -440.252444  Gnorm:      0.412590  CPU:   11.312
  Cycle:     25 Energy:      -440.282173  Gnorm:      0.264331  CPU:   11.315
  Cycle:     26 Energy:      -440.290561  Gnorm:      0.238996  CPU:   11.317
  Cycle:     27 Energy:      -440.309814  Gnorm:      0.312349  CPU:   11.320
  Cycle:     28 Energy:      -440.322580  Gnorm:      0.269466  CPU:   11.323
  Cycle:     29 Energy:      -440.341640  Gnorm:      0.238392  CPU:   11.326
  Cycle:     30 Energy:      -440.347506  Gnorm:      0.138281  CPU:   11.328
  Cycle:     31 Energy:      -440.350528  Gnorm:      0.133025  CPU:   11.331
  Cycle:     32 Energy:      -440.354593  Gnorm:      0.144453  CPU:   11.333
  Cycle:     33 Energy:      -440.357296  Gnorm:      0.119455  CPU:   11.336
  Cycle:     34 Energy:      -440.367317  Gnorm:      0.144304  CPU:   11.339
  Cycle:     35 Energy:      -440.376878  Gnorm:      0.163894  CPU:   11.341
  Cycle:     36 Energy:      -440.383347  Gnorm:      0.250261  CPU:   11.344
  Cycle:     37 Energy:      -440.393539  Gnorm:      0.167161  CPU:   11.347
  Cycle:     38 Energy:      -440.400368  Gnorm:      0.137326  CPU:   11.350
  Cycle:     39 Energy:      -440.402965  Gnorm:      0.123879  CPU:   11.352
  Cycle:     40 Energy:      -440.404629  Gnorm:      0.095676  CPU:   11.355
  Cycle:     41 Energy:      -440.406255  Gnorm:      0.094636  CPU:   11.357
  Cycle:     42 Energy:      -440.409224  Gnorm:      0.158609  CPU:   11.360
  Cycle:     43 Energy:      -440.413965  Gnorm:      0.092650  CPU:   11.362
  Cycle:     44 Energy:      -440.415763  Gnorm:      0.062112  CPU:   11.365
  Cycle:     45 Energy:      -440.416695  Gnorm:      0.077571  CPU:   11.367
  Cycle:     46 Energy:      -440.417856  Gnorm:      0.074522  CPU:   11.370
  Cycle:     47 Energy:      -440.418769  Gnorm:      0.064095  CPU:   11.372
  Cycle:     48 Energy:      -440.419310  Gnorm:      0.052990  CPU:   11.375
  Cycle:     49 Energy:      -440.420735  Gnorm:      0.060371  CPU:   11.377
  Cycle:     50 Energy:      -440.421430  Gnorm:      0.054895  CPU:   11.380
  Cycle:     51 Energy:      -440.421774  Gnorm:      0.044937  CPU:   11.382
  Cycle:     52 Energy:      -440.422287  Gnorm:      0.038452  CPU:   11.385
  Cycle:     53 Energy:      -440.422797  Gnorm:      0.059506  CPU:   11.387
  Cycle:     54 Energy:      -440.423549  Gnorm:      0.054434  CPU:   11.390
  Cycle:     55 Energy:      -440.424227  Gnorm:      0.051597  CPU:   11.392
  Cycle:     56 Energy:      -440.425252  Gnorm:      0.081643  CPU:   11.394
  Cycle:     57 Energy:      -440.426586  Gnorm:      0.066917  CPU:   11.397
  Cycle:     58 Energy:      -440.427333  Gnorm:      0.069090  CPU:   11.399
  Cycle:     59 Energy:      -440.427913  Gnorm:      0.038489  CPU:   11.402
  Cycle:     60 Energy:      -440.428215  Gnorm:      0.031026  CPU:   11.404
  Cycle:     61 Energy:      -440.428342  Gnorm:      0.029136  CPU:   11.407
  Cycle:     62 Energy:      -440.428615  Gnorm:      0.039671  CPU:   11.409
  Cycle:     63 Energy:      -440.428832  Gnorm:      0.028367  CPU:   11.412
  Cycle:     64 Energy:      -440.428971  Gnorm:      0.024762  CPU:   11.414
  Cycle:     65 Energy:      -440.429398  Gnorm:      0.053194  CPU:   11.417
  Cycle:     66 Energy:      -440.429759  Gnorm:      0.034098  CPU:   11.419
  Cycle:     67 Energy:      -440.429896  Gnorm:      0.028566  CPU:   11.422
  Cycle:     68 Energy:      -440.430044  Gnorm:      0.021025  CPU:   11.424
  Cycle:     69 Energy:      -440.430152  Gnorm:      0.019780  CPU:   11.427
  Cycle:     70 Energy:      -440.430208  Gnorm:      0.017994  CPU:   11.429
  Cycle:     71 Energy:      -440.430276  Gnorm:      0.017122  CPU:   11.432
  Cycle:     72 Energy:      -440.430334  Gnorm:      0.019695  CPU:   11.435
  Cycle:     73 Energy:      -440.430418  Gnorm:      0.027150  CPU:   11.437
  Cycle:     74 Energy:      -440.430809  Gnorm:      0.017108  CPU:   11.440
  Cycle:     75 Energy:      -440.430940  Gnorm:      0.014955  CPU:   11.443
  Cycle:     76 Energy:      -440.431054  Gnorm:      0.020502  CPU:   11.445
  Cycle:     77 Energy:      -440.431122  Gnorm:      0.024130  CPU:   11.447
  Cycle:     78 Energy:      -440.431255  Gnorm:      0.025072  CPU:   11.450
  Cycle:     79 Energy:      -440.431360  Gnorm:      0.020941  CPU:   11.452
  Cycle:     80 Energy:      -440.431410  Gnorm:      0.016423  CPU:   11.455
  Cycle:     81 Energy:      -440.431452  Gnorm:      0.013853  CPU:   11.457
  Cycle:     82 Energy:      -440.431492  Gnorm:      0.013991  CPU:   11.460
  Cycle:     83 Energy:      -440.431517  Gnorm:      0.007962  CPU:   11.462
  Cycle:     84 Energy:      -440.431543  Gnorm:      0.008502  CPU:   11.465
  Cycle:     85 Energy:      -440.431563  Gnorm:      0.007527  CPU:   11.467
  Cycle:     86 Energy:      -440.431619  Gnorm:      0.006224  CPU:   11.470
  Cycle:     87 Energy:      -440.431627  Gnorm:      0.009543  CPU:   11.473
  Cycle:     88 Energy:      -440.431646  Gnorm:      0.005535  CPU:   11.475
  Cycle:     89 Energy:      -440.431679  Gnorm:      0.009131  CPU:   11.478
  Cycle:     90 Energy:      -440.431686  Gnorm:      0.005969  CPU:   11.481
  Cycle:     91 Energy:      -440.431692  Gnorm:      0.004028  CPU:   11.483
  Cycle:     92 Energy:      -440.431697  Gnorm:      0.006556  CPU:   11.486
  Cycle:     93 Energy:      -440.431711  Gnorm:      0.006125  CPU:   11.488
  Cycle:     94 Energy:      -440.431722  Gnorm:      0.005510  CPU:   11.491
  Cycle:     95 Energy:      -440.431728  Gnorm:      0.004578  CPU:   11.494
  Cycle:     96 Energy:      -440.431731  Gnorm:      0.003626  CPU:   11.496
  Cycle:     97 Energy:      -440.431737  Gnorm:      0.006475  CPU:   11.499
  Cycle:     98 Energy:      -440.431743  Gnorm:      0.005676  CPU:   11.501
  Cycle:     99 Energy:      -440.431748  Gnorm:      0.004659  CPU:   11.504
  Cycle:    100 Energy:      -440.431750  Gnorm:      0.002630  CPU:   11.506
  Cycle:    101 Energy:      -440.431752  Gnorm:      0.002730  CPU:   11.509
  Cycle:    102 Energy:      -440.431753  Gnorm:      0.003254  CPU:   11.511
  Cycle:    103 Energy:      -440.431758  Gnorm:      0.004430  CPU:   11.514
  Cycle:    104 Energy:      -440.431767  Gnorm:      0.003080  CPU:   11.516
  Cycle:    105 Energy:      -440.431770  Gnorm:      0.003244  CPU:   11.519
  Cycle:    106 Energy:      -440.431774  Gnorm:      0.005410  CPU:   11.522
  Cycle:    107 Energy:      -440.431778  Gnorm:      0.003514  CPU:   11.524
  Cycle:    108 Energy:      -440.431780  Gnorm:      0.003420  CPU:   11.527
  Cycle:    109 Energy:      -440.431782  Gnorm:      0.002684  CPU:   11.529
  Cycle:    110 Energy:      -440.431783  Gnorm:      0.002357  CPU:   11.532
  Cycle:    111 Energy:      -440.431784  Gnorm:      0.002329  CPU:   11.534
  Cycle:    112 Energy:      -440.431786  Gnorm:      0.002729  CPU:   11.537
  Cycle:    113 Energy:      -440.431788  Gnorm:      0.002222  CPU:   11.540
  Cycle:    114 Energy:      -440.431788  Gnorm:      0.001624  CPU:   11.542
  Cycle:    115 Energy:      -440.431790  Gnorm:      0.001975  CPU:   11.545


  **** Optimisation achieved ****


  Final energy =    -440.43179055 eV
  Final Gnorm  =       0.00071669

  Components of energy : 

--------------------------------------------------------------------------------
  Interatomic potentials     =         123.72294041 eV
  Monopole - monopole (real) =        -233.63370059 eV
  Monopole - monopole (recip)=        -330.52103036 eV
  Monopole - monopole (total)=        -564.15473095 eV
--------------------------------------------------------------------------------
  Total lattice energy       =        -440.43179055 eV
--------------------------------------------------------------------------------
  Total lattice energy       =          -42494.9352 kJ/(mole unit cells)
--------------------------------------------------------------------------------

  Final fractional coordinates of atoms :

--------------------------------------------------------------------------------
   No.  Atomic        x           y          z          Radius
        Label       (Frac)      (Frac)     (Frac)       (Angs) 
--------------------------------------------------------------------------------
     1  Ti1   c     0.000000    0.000000    0.000000    0.000000
     2  Ti2   c     0.500123    0.500123    0.749988    0.000000
     3  Ti3   c     0.000195    0.000195    0.499985    0.000000
     4  Ti4   c     0.500124    0.500124    0.249989    0.000000
     5  O1    c     0.217407    0.217407    0.642923    0.000000
     6  O2    c     0.783040    0.783040    0.357009    0.000000
     7  O3    c     0.283023    0.283023    0.392944    0.000000
     8  O4    c     0.717220    0.717220    0.107027    0.000000
     9  O5    c     0.217255    0.217255    0.142945    0.000000
    10  O6    c     0.282851    0.282851    0.892934    0.000000
    11  O7    c     0.782889    0.782889    0.857038    0.000000
    12  O8    c     0.717393    0.717393    0.607030    0.000000
--------------------------------------------------------------------------------

  Final internal derivatives :

--------------------------------------------------------------------------------
   No.  Atomic          a             b             c           Radius
        Label          (eV)          (eV)          (eV)        (eV/Angs)
--------------------------------------------------------------------------------
      1 Ti1   c       0.000000      0.000000      0.000000      0.000000
      2 Ti2   c       0.000531      0.000531     -0.006954      0.000000
      3 Ti3   c       0.005652      0.005652      0.003512      0.000000
      4 Ti4   c       0.001630      0.001630      0.000308      0.000000
      5 O1    c       0.005913      0.005913      0.000658      0.000000
      6 O2    c       0.006433      0.006433     -0.005007      0.000000
      7 O3    c       0.002368      0.002368     -0.003841      0.000000
      8 O4    c      -0.001126     -0.001126      0.001927      0.000000
      9 O5    c       0.002212      0.002212     -0.007282      0.000000
     10 O6    c      -0.000917     -0.000917     -0.005832      0.000000
     11 O7    c       0.004905      0.004905      0.006774      0.000000
     12 O8    c       0.002356      0.002356     -0.003844      0.000000
--------------------------------------------------------------------------------
  Maximum abs         0.006433      0.006433      0.007282      0.000000
--------------------------------------------------------------------------------


  Time to end of optimisation =      11.5484 seconds



  XTL file written for configuration    1 as anat01_1.xtl                  
  XTL file written for configuration    2 as anat01_2.xtl                  

  Peak dynamic memory used =       0.57 MB 


  Timing analysis for GULP :

--------------------------------------------------------------------------------
  Task / Subroutine                                          Time (Seconds)
--------------------------------------------------------------------------------
  Calculation of reciprocal space energy and derivatives          0.1329
  Calculation of real space energy and derivatives               11.0879
  Global summation overhead                                       0.0011
--------------------------------------------------------------------------------
  Total CPU time                                                 11.5489
--------------------------------------------------------------------------------


  XTL file written for configuration    1 as anat01_1.xtl                  
  XTL file written for configuration    2 as anat01_2.xtl                  
  Job Finished at 17:17.28 29th July       2013                               

