********************************************************************************
*                       GENERAL UTILITY LATTICE PROGRAM                        *
*                                 Julian Gale                                  *
*                      Nanochemistry Research Institute                        *
*                           Department of Chemistry                            *
*                    Curtin University, Western Australia                      *
********************************************************************************
* Version = 4.1.0 * Last modified =   7th July 2013                            *
********************************************************************************
*  gradient     - perform gradient run                                         *
*  conp         - constant pressure calculation                                *
********************************************************************************

  Job Started  at 17:23.57 28th July       2013                               

  Number of CPUs =     1

  Host name      = M-A0002884.local                        


  Total number of configurations input =   1

********************************************************************************
*  Input for Configuration =   1                                               *
********************************************************************************

  Formula = OH2                                                         

  Number of irreducible atoms/shells =       3


  Total number atoms/shells =       3

  Dimensionality = 0               :  Cluster


  Charge on cluster =   0.800000


  Initial cluster dipoles : x =      0.200000 e.Angs
                            y =      0.320000 e.Angs
                            z =      0.000000 e.Angs

  Temperature of configuration =  0.000     K 

  Symmetry number =      1

  Cartesian coordinates of cluster :

--------------------------------------------------------------------------------
   No.  Atomic       x           y          z         Charge      Occupancy
        Label      (Angs)      (Angs)     (Angs)        (e)         (Frac)  
--------------------------------------------------------------------------------
      1 O     c      0.0000      0.0000      0.0000    -0.00000    1.000000    
      2 H     c      1.0000 *    0.0000 *    0.0000 *   0.40000    1.000000    
      3 H     c     -0.5000 *    0.8000 *    0.0000 *   0.40000    1.000000    
--------------------------------------------------------------------------------



********************************************************************************
*  General input information                                                   *
********************************************************************************

  Species output for all configurations : 

--------------------------------------------------------------------------------
  Species    Type    Atomic    Atomic    Charge       Radii (Angs)     Library
                     Number     Mass       (e)     Cova   Ionic  VDW   Symbol
--------------------------------------------------------------------------------
    O        Core        8      16.00  -0.000000   0.730  0.000  1.360          
    H        Core        1       1.01   0.400000   0.370  0.000  1.080          
--------------------------------------------------------------------------------


  Accuracy factor for short range sums = 12.000

  Time limit = Infinity

  General Three-body potentials :

  3 Coulomb potential:

--------------------------------------------------------------------------------
       Atom Types        Coulomb subtract                         Cutoffs  
   1       2       3          (frac)                         1-2    1-3    2-3  
--------------------------------------------------------------------------------
O     c H     c H     c       0.50000                       0.000  0.000  0.000
                                                            1.200  1.200  2.400
--------------------------------------------------------------------------------

********************************************************************************
*  Output for configuration   1                                                *
********************************************************************************


  Components of energy : 

--------------------------------------------------------------------------------
  Interatomic potentials     =           0.00000000 eV
  Three-body potentials      =          -0.67763569 eV
  Monopole - monopole (real) =           1.35527138 eV
--------------------------------------------------------------------------------
  Total lattice energy       =           0.67763569 eV
--------------------------------------------------------------------------------
  Total lattice energy       =              65.3815 kJ/mol
--------------------------------------------------------------------------------



  Final Cartesian derivatives :

--------------------------------------------------------------------------------
   No.  Atomic          x             y             z           Radius
        Label       (eV/Angs)     (eV/Angs)    (eV/Angs)      (eV/Angs)
--------------------------------------------------------------------------------
      1 O     c       0.000000      0.000000      0.000000      0.000000
      2 H     c      -0.351714      0.187581      0.000000      0.000000
      3 H     c       0.351714     -0.187581      0.000000      0.000000
--------------------------------------------------------------------------------
  Maximum abs         0.351714      0.187581      0.000000      0.000000
--------------------------------------------------------------------------------


  Time to end of gradients =       0.0039 seconds


  Peak dynamic memory used =       0.46 MB 


  Timing analysis for GULP :

--------------------------------------------------------------------------------
  Task / Subroutine                                          Time (Seconds)
--------------------------------------------------------------------------------
  Calculation of three-body energy and derivatives                0.0002
--------------------------------------------------------------------------------
  Total CPU time                                                  0.0039
--------------------------------------------------------------------------------


  Dump file written as example40.grs                                           


  Job Finished at 17:23.57 28th July       2013                               

