********************************************************************************
*                       GENERAL UTILITY LATTICE PROGRAM                        *
*                                 Julian Gale                                  *
*                      Nanochemistry Research Institute                        *
*                           Department of Chemistry                            *
*                    Curtin University, Western Australia                      *
********************************************************************************
* Version = 4.1.0 * Last modified =   7th July 2013                            *
********************************************************************************
*  optimise     - perform optimisation run                                     *
*  free_energy  - use Gibbs free energy instead of internal energy             *
*  zsisa        - only calculate free energy derivatives w.r.t. strain         *
*  conp         - constant pressure calculation                                *
********************************************************************************

  Job Started  at 09:27.22 29th July       2013                               

  Number of CPUs =     1

  Host name      = M-A0002884.local                        


  Total number of configurations input =   1

********************************************************************************
*  Input for Configuration =   1                                               *
********************************************************************************

  Formula = Si3O6                                                       

  Number of irreducible atoms/shells =       3


  Total number atoms/shells =      15

  Dimensionality = 3               :  Bulk   


  Symmetry :

  Crystal family                   :  Hexagonal   
  Crystal class  (Groth - 1921)    :  Trigonal Trapezohedral               

  Space group (noncentrosymmetric) :  P 31 2 1        

  Patterson group                  :  P -3 m 1 

  Cartesian lattice vectors (Angstroms) :

        4.914600    0.000000    0.000000
       -2.457300    4.256168    0.000000
        0.000000    0.000000    5.406000

  Cell parameters (Angstroms/Degrees):

  a =       4.9146    alpha =  90.0000
  b =       4.9146    beta  =  90.0000
  c =       5.4060    gamma = 120.0000

  Initial cell volume =         113.079278 Angs**3

  Shrinking factors =      5     5     5

  Temperature of configuration =  300.0     K 

  Pressure of configuration =         0.000 GPa 

  Fractional coordinates of asymmetric unit :

--------------------------------------------------------------------------------
   No.  Atomic       x           y          z         Charge      Occupancy
        Label      (Frac)      (Frac)     (Frac)        (e)         (Frac)  
--------------------------------------------------------------------------------
      1 Si    c    0.469800 *  0.000000    0.333333     4.00000    1.000000    
      2 O     c    0.414500 *  0.266200 *  0.214430 *   0.86902    1.000000    
      3 O     s    0.433075 *  0.264909 *  0.205008 *  -2.86902    1.000000    
--------------------------------------------------------------------------------


  Constraints : 

--------------------------------------------------------------------------------
  Constraint no.      Unconstrained     Constrained    Coefficient    Offset
                         Variable         Variable
--------------------------------------------------------------------------------
           1              Strain 1        Strain 2       1.00000      0.0000
--------------------------------------------------------------------------------

  Brillouin zone sampling points :

--------------------------------------------------------------------------------
  Point number          x          y          z            Weight
--------------------------------------------------------------------------------
        1           0.100000   0.100000   0.100000         0.0320
        2           0.100000   0.100000   0.300000         0.0320
        3           0.100000   0.100000   0.500000         0.0160
        4           0.300000   0.100000   0.100000         0.0320
        5           0.300000   0.100000   0.300000         0.0320
        6           0.300000   0.100000   0.500000         0.0320
        7           0.300000   0.100000   0.700000         0.0320
        8           0.300000   0.100000   0.900000         0.0320
        9           0.300000   0.300000   0.100000         0.0320
       10           0.300000   0.300000   0.300000         0.0320
       11           0.300000   0.300000   0.500000         0.0160
       12           0.500000   0.100000   0.100000         0.0320
       13           0.500000   0.100000   0.300000         0.0320
       14           0.500000   0.100000   0.500000         0.0320
       15           0.500000   0.100000   0.700000         0.0320
       16           0.500000   0.100000   0.900000         0.0320
       17           0.500000   0.300000   0.100000         0.0320
       18           0.500000   0.300000   0.300000         0.0320
       19           0.500000   0.300000   0.500000         0.0320
       20           0.500000   0.300000   0.700000         0.0320
       21           0.500000   0.300000   0.900000         0.0320
       22           0.500000   0.500000   0.100000         0.0160
       23           0.500000   0.500000   0.300000         0.0160
       24           0.500000   0.500000   0.500000         0.0080
       25           0.700000   0.100000   0.100000         0.0320
       26           0.700000   0.100000   0.300000         0.0320
       27           0.700000   0.100000   0.500000         0.0320
       28           0.700000   0.100000   0.700000         0.0320
       29           0.700000   0.100000   0.900000         0.0320
       30           0.700000   0.300000   0.100000         0.0160
       31           0.700000   0.300000   0.300000         0.0160
       32           0.700000   0.300000   0.500000         0.0160
       33           0.700000   0.300000   0.700000         0.0160
       34           0.700000   0.300000   0.900000         0.0160
       35           0.900000   0.100000   0.100000         0.0160
       36           0.900000   0.100000   0.300000         0.0160
       37           0.900000   0.100000   0.500000         0.0160
       38           0.900000   0.100000   0.700000         0.0160
       39           0.900000   0.100000   0.900000         0.0160
--------------------------------------------------------------------------------


********************************************************************************
*  General input information                                                   *
********************************************************************************

  Species output for all configurations : 

--------------------------------------------------------------------------------
  Species    Type    Atomic    Atomic    Charge       Radii (Angs)     Library
                     Number     Mass       (e)     Cova   Ionic  VDW   Symbol
--------------------------------------------------------------------------------
    Si       Core       14      28.09   4.000000   1.200  0.000  2.100          
    O        Core        8      16.00   0.869020   0.730  0.000  1.360          
    O        Shell       8       0.00  -2.869020   0.730  0.000  1.360          
--------------------------------------------------------------------------------


  Lattice summation method               =    Ewald          (3-D)
                                         =    Parry          (2-D)
                                         =    Saunders et al (1-D)
  Accuracy factor for lattice sums       =   12.000


  Time limit = Infinity

  Maximum range for interatomic potentials =        12.000000 Angstroms

  Taper potentials to zero over   2.0000 Angstroms using polynomial

  General interatomic potentials :

--------------------------------------------------------------------------------
Atom  Types   Potential         A         B         C         D     Cutoffs(Ang)
  1     2                                                            Min    Max 
--------------------------------------------------------------------------------
Si   c O    s Buckingham    0.127E+04 0.321      5.91      0.00     0.000 12.000
O    s O    s Buckingham    0.228E+05 0.149      27.9      0.00     0.000 12.000
O    c O    s Spring (c-s)   79.1      0.00      0.00      0.00     0.000  0.800
O    s O    s Harmonic       2.30      2.43      0.00      0.00     0.000  3.000
--------------------------------------------------------------------------------

********************************************************************************
*  Output for configuration   1                                                *
********************************************************************************


  Components of free energy : 

--------------------------------------------------------------------------------
  Interatomic potentials     =         107.98221178 eV
  Monopole - monopole (real) =        -231.68260780 eV
  Monopole - monopole (recip)=        -259.08798688 eV
  Monopole - monopole (total)=        -490.77059468 eV
  Vibrational contribution   =           0.76059481 eV
--------------------------------------------------------------------------------
  Total free energy          =        -382.02778809 eV
--------------------------------------------------------------------------------
  Total free energy          =          -36859.8417 kJ/(mole unit cells)
--------------------------------------------------------------------------------


  Number of variables =        9

  Maximum number of calculations  =          1000
  Maximum Hessian update interval =            10
  Maximum step size               =   1.000000000
  Maximum parameter tolerance     =   0.000010000
  Maximum function  tolerance     =   0.000010000
  Maximum gradient  tolerance     =   0.001000000
  Maximum gradient  component     =   0.010000000

  Symmetry constrained optimisation

  Cell parameters to be optimised using strains

  Newton-Raphson optimiser to be used

  BFGS hessian update to be used

  Dumpfile to be written after every cycle

  Start of bulk optimisation :

  Cycle:      0 Energy:      -382.027788  Gnorm:      2.984359  CPU:    1.187
  ** Hessian calculated **
  Cycle:      1 Energy:      -382.034439  Gnorm:      2.390180  CPU:    2.049
  Cycle:      2 Energy:      -382.038940  Gnorm:      1.869842  CPU:    2.902
  Cycle:      3 Energy:      -382.044500  Gnorm:      0.878841  CPU:    3.751
  Cycle:      4 Energy:      -382.045745  Gnorm:      0.409973  CPU:    4.601
  Cycle:      5 Energy:      -382.046091  Gnorm:      0.035334  CPU:    5.450
  Cycle:      6 Energy:      -382.046092  Gnorm:      0.021170  CPU:    6.306
  Cycle:      7 Energy:      -382.046092  Gnorm:      0.002717  CPU:    7.159


  **** Optimisation achieved ****


  Final free energy =    -382.04609234 eV
  Final Gnorm       =       0.00020398

  Components of free energy : 

--------------------------------------------------------------------------------
  Interatomic potentials     =         107.23662389 eV
  Monopole - monopole (real) =        -230.66869830 eV
  Monopole - monopole (recip)=        -259.37584736 eV
  Monopole - monopole (total)=        -490.04454566 eV
  Vibrational contribution   =           0.76182943 eV
--------------------------------------------------------------------------------
  Total free energy          =        -382.04609234 eV
--------------------------------------------------------------------------------
  Total free energy          =          -36861.6078 kJ/(mole unit cells)
--------------------------------------------------------------------------------

  Final asymmetric unit coordinates :

--------------------------------------------------------------------------------
   No.  Atomic        x           y           z         Radius
        Label       (Frac)      (Frac)      (Frac)       (Angs) 
--------------------------------------------------------------------------------
     1  Si    c     0.467956    0.000000    0.333333    0.000000
     2  O     c     0.413848    0.268433    0.214162    0.000000
     3  O     s     0.431628    0.267344    0.205133    0.000000
--------------------------------------------------------------------------------

  Final Cartesian lattice vectors (Angstroms) :

        4.906163    0.000000    0.000000
       -2.453082    4.248862    0.000000
        0.000000    0.000000    5.406516


  Final cell parameters and derivatives :

--------------------------------------------------------------------------------
       a            4.906163 Angstrom     dE/de1(xx)     0.000323 eV/strain
       b            4.906163 Angstrom     dE/de2(yy)     0.000000 eV/strain
       c            5.406516 Angstrom     dE/de3(zz)     0.000093 eV/strain
       alpha       90.000000 Degrees      dE/de4(yz)     0.000000 eV/strain
       beta        90.000000 Degrees      dE/de5(xz)     0.000000 eV/strain
       gamma      120.000000 Degrees      dE/de6(xy)     0.000000 eV/strain
--------------------------------------------------------------------------------

  Primitive cell volume =           112.702135 Angs**3

  Density of cell =      2.656118 g/cm**3

  Non-primitive cell volume =           112.702135 Angs**3


  Final internal derivatives :

--------------------------------------------------------------------------------
   No.  Atomic          a             b             c           Radius
        Label          (eV)          (eV)          (eV)        (eV/Angs)
--------------------------------------------------------------------------------
      1 Si    c      -0.000202      0.000000      0.000000      0.000000
      2 O     c      -0.000703      0.000204      0.000584      0.000000
      3 O     s       0.001321     -0.000750     -0.000174      0.000000
--------------------------------------------------------------------------------
  Maximum abs         0.001321      0.000750      0.000584      0.000000
--------------------------------------------------------------------------------


  Time to end of optimisation =       8.0100 seconds


  Peak dynamic memory used =       0.59 MB 


  Timing analysis for GULP :

--------------------------------------------------------------------------------
  Task / Subroutine                                          Time (Seconds)
--------------------------------------------------------------------------------
  Calculation of reciprocal space energy and derivatives          0.4859
  Calculation of real space energy and derivatives                2.6740
  Calculation of free energy and derivatives                      7.9033
  Calculation of matrix inversion                                 0.0060
  Symmetry generation of equivalent positions                     0.0002
--------------------------------------------------------------------------------
  Total CPU time                                                  8.0101
--------------------------------------------------------------------------------


  Dump file written as example25.grs                                           


  Job Finished at 09:27.30 29th July       2013                               

