********************************************************************************
*                       GENERAL UTILITY LATTICE PROGRAM                        *
*                                 Julian Gale                                  *
*                      Nanochemistry Research Institute                        *
*                           Department of Chemistry                            *
*                    Curtin University, Western Australia                      *
********************************************************************************
* Version = 4.1.0 * Last modified =   7th July 2013                            *
********************************************************************************
*  single       - perform a single point run                                   *
*  md           - perform molecular dynamics run                               *
*  conp         - constant pressure calculation                                *
********************************************************************************

  Job Started  at 09:12.36 29th July       2013                               

  Number of CPUs =     1

  Host name      = M-A0002884.local                        


  Total number of configurations input =   1

********************************************************************************
*  Input for Configuration =   1                                               *
********************************************************************************

  Formula = Si12O24                                                     

  Number of irreducible atoms/shells =      60


  Total number atoms/shells =      60

  Dimensionality = 3               :  Bulk   



  Cartesian lattice vectors (Angstroms) :

        6.771494    3.909524    4.855125
       -6.771494    3.909524    4.855125
        0.000000   -7.819048    4.855125

  Cell parameters (Angstroms/Degrees):

  a =       9.2038    alpha =  94.7377
  b =       9.2038    beta  =  94.7377
  c =       9.2038    gamma =  94.7377

  Initial cell volume =         771.187657 Angs**3

  Temperature of configuration =  300.0     K 

  Pressure of configuration =         0.000 GPa 

  Fractional coordinates of asymmetric unit :

--------------------------------------------------------------------------------
   No.  Atomic       x           y          z         Charge      Occupancy
        Label      (Frac)      (Frac)     (Frac)        (e)         (Frac)  
--------------------------------------------------------------------------------
      1 Si    c    0.106332 *  0.333397 *  0.878375 *   4.00000    1.000000    
      2 Si    c    0.878375 *  0.106332 *  0.333397 *   4.00000    1.000000    
      3 Si    c    0.333397 *  0.878375 *  0.106332 *   4.00000    1.000000    
      4 Si    c    0.666603 *  0.893668 *  0.121625 *   4.00000    1.000000    
      5 Si    c    0.893668 *  0.121625 *  0.666603 *   4.00000    1.000000    
      6 Si    c    0.121625 *  0.666603 *  0.893668 *   4.00000    1.000000    
      7 Si    c    0.893668 *  0.666603 *  0.121625 *   4.00000    1.000000    
      8 Si    c    0.121625 *  0.893668 *  0.666603 *   4.00000    1.000000    
      9 Si    c    0.666603 *  0.121625 *  0.893668 *   4.00000    1.000000    
     10 Si    c    0.333397 *  0.106332 *  0.878375 *   4.00000    1.000000    
     11 Si    c    0.106332 *  0.878375 *  0.333397 *   4.00000    1.000000    
     12 Si    c    0.878375 *  0.333397 *  0.106332 *   4.00000    1.000000    
     13 O     c    0.259237 *  0.740763 *  0.000000 *   0.86902    1.000000    
     14 O     c    0.000000 *  0.259237 *  0.740763 *   0.86902    1.000000    
     15 O     c    0.740763 *  0.000000 *  0.259237 *   0.86902    1.000000    
     16 O     c    0.740763 *  0.259237 *  0.000000 *   0.86902    1.000000    
     17 O     c    0.000000 *  0.740763 *  0.259237 *   0.86902    1.000000    
     18 O     c    0.259237 *  0.000000 *  0.740763 *   0.86902    1.000000    
     19 O     c    0.150065 *  0.849935 *  0.500000 *   0.86902    1.000000    
     20 O     c    0.500000 *  0.150065 *  0.849935 *   0.86902    1.000000    
     21 O     c    0.849935 *  0.500000 *  0.150065 *   0.86902    1.000000    
     22 O     c    0.849935 *  0.150065 *  0.500000 *   0.86902    1.000000    
     23 O     c    0.500000 *  0.849935 *  0.150065 *   0.86902    1.000000    
     24 O     c    0.150065 *  0.500000 *  0.849935 *   0.86902    1.000000    
     25 O     c    0.253778 *  0.253778 *  0.897094 *   0.86902    1.000000    
     26 O     c    0.897094 *  0.253778 *  0.253778 *   0.86902    1.000000    
     27 O     c    0.253778 *  0.897094 *  0.253778 *   0.86902    1.000000    
     28 O     c    0.746222 *  0.746222 *  0.102906 *   0.86902    1.000000    
     29 O     c    0.746222 *  0.102906 *  0.746222 *   0.86902    1.000000    
     30 O     c    0.102906 *  0.746222 *  0.746222 *   0.86902    1.000000    
     31 O     c    0.026519 *  0.026519 *  0.323465 *   0.86902    1.000000    
     32 O     c    0.323465 *  0.026519 *  0.026519 *   0.86902    1.000000    
     33 O     c    0.026519 *  0.323465 *  0.026519 *   0.86902    1.000000    
     34 O     c    0.973481 *  0.973481 *  0.676535 *   0.86902    1.000000    
     35 O     c    0.973481 *  0.676535 *  0.973481 *   0.86902    1.000000    
     36 O     c    0.676535 *  0.973481 *  0.973481 *   0.86902    1.000000    
     37 O     s    0.259237 *  0.740763 *  0.000000 *  -2.86902    1.000000    
     38 O     s    0.000000 *  0.259237 *  0.740763 *  -2.86902    1.000000    
     39 O     s    0.740763 *  0.000000 *  0.259237 *  -2.86902    1.000000    
     40 O     s    0.740763 *  0.259237 *  0.000000 *  -2.86902    1.000000    
     41 O     s    0.000000 *  0.740763 *  0.259237 *  -2.86902    1.000000    
     42 O     s    0.259237 *  0.000000 *  0.740763 *  -2.86902    1.000000    
     43 O     s    0.150065 *  0.849935 *  0.500000 *  -2.86902    1.000000    
     44 O     s    0.500000 *  0.150065 *  0.849935 *  -2.86902    1.000000    
     45 O     s    0.849935 *  0.500000 *  0.150065 *  -2.86902    1.000000    
     46 O     s    0.849935 *  0.150065 *  0.500000 *  -2.86902    1.000000    
     47 O     s    0.500000 *  0.849935 *  0.150065 *  -2.86902    1.000000    
     48 O     s    0.150065 *  0.500000 *  0.849935 *  -2.86902    1.000000    
     49 O     s    0.253778 *  0.253778 *  0.897094 *  -2.86902    1.000000    
     50 O     s    0.897094 *  0.253778 *  0.253778 *  -2.86902    1.000000    
     51 O     s    0.253778 *  0.897094 *  0.253778 *  -2.86902    1.000000    
     52 O     s    0.746222 *  0.746222 *  0.102906 *  -2.86902    1.000000    
     53 O     s    0.746222 *  0.102906 *  0.746222 *  -2.86902    1.000000    
     54 O     s    0.102906 *  0.746222 *  0.746222 *  -2.86902    1.000000    
     55 O     s    0.026519 *  0.026519 *  0.323465 *  -2.86902    1.000000    
     56 O     s    0.323465 *  0.026519 *  0.026519 *  -2.86902    1.000000    
     57 O     s    0.026519 *  0.323465 *  0.026519 *  -2.86902    1.000000    
     58 O     s    0.973481 *  0.973481 *  0.676535 *  -2.86902    1.000000    
     59 O     s    0.973481 *  0.676535 *  0.973481 *  -2.86902    1.000000    
     60 O     s    0.676535 *  0.973481 *  0.973481 *  -2.86902    1.000000    
--------------------------------------------------------------------------------



********************************************************************************
*  General input information                                                   *
********************************************************************************

  Species output for all configurations : 

--------------------------------------------------------------------------------
  Species    Type    Atomic    Atomic    Charge       Radii (Angs)     Library
                     Number     Mass       (e)     Cova   Ionic  VDW   Symbol
--------------------------------------------------------------------------------
    Si       Core       14      28.09   4.000000   1.200  0.000  2.100          
    O        Core        8      14.40   0.869020   0.730  0.000  1.360          
    O        Shell       8       1.60  -2.869020   0.730  0.000  1.360          
--------------------------------------------------------------------------------


  Lattice summation method               =    Ewald          (3-D)
                                         =    Parry          (2-D)
                                         =    Saunders et al (1-D)
  Accuracy factor for lattice sums       =   12.000


  Time limit = Infinity

  Maximum range for interatomic potentials =        12.000000 Angstroms

  Taper potentials to zero over   1.0000 Angstroms using polynomial

  General interatomic potentials :

--------------------------------------------------------------------------------
Atom  Types   Potential         A         B         C         D     Cutoffs(Ang)
  1     2                                                            Min    Max 
--------------------------------------------------------------------------------
Si   c O    s Buckingham    0.128E+04 0.321      10.7      0.00     0.000 12.000
O    s O    s Buckingham    0.228E+05 0.149      27.9      0.00     0.000 12.000
O    c O    s Spring (c-s)   74.9      0.00      0.00      0.00     0.000  0.800
--------------------------------------------------------------------------------

  General Three-body potentials :

  Harmonic form:

--------------------------------------------------------------------------------
Atom    Atom    Atom           Force Constants            Theta     Cutoffs  
  1       2       3     (eVrad**-2/eVrad**-3/eVrad**-4)   (deg)  1-2  1-3  2-3
--------------------------------------------------------------------------------
Si    c O     s O     s  2.097        0.0000    0.0000   109.470 0.00 0.00 0.00
                                                                 1.90 1.90 3.60
--------------------------------------------------------------------------------

********************************************************************************
*  Output for configuration   1                                                *
********************************************************************************


  Components of energy : 

--------------------------------------------------------------------------------
  Interatomic potentials     =         378.85222191 eV
  Three-body potentials      =           0.05863266 eV
  Monopole - monopole (real) =       -1269.81289803 eV
  Monopole - monopole (recip)=        -633.48791574 eV
  Monopole - monopole (total)=       -1903.30081377 eV
--------------------------------------------------------------------------------
  Total lattice energy       =       -1524.38995920 eV
--------------------------------------------------------------------------------
  Total lattice energy       =         -147080.3286 kJ/(mole unit cells)
--------------------------------------------------------------------------------

  Equations of motion will be integrated using the leapfrog Verlet algorithm.

  Core-shell wave numbers:

    O   :    3761.37 cm**(-1)

  Above wave numbers must be larger than the vibrational modes for this system.


********************************************************************************
*  Molecular Dynamics                                                          *
********************************************************************************

  Isothermal/baric ensemble (NPT) to be used

  Friction for temperature bath =           0.005000
  Friction for pressure    bath =           0.005000

  No. of mobile ions        =                 36

  No. of degrees of freedom =                105

  Time step                 =           0.000100 ps
  Equilibration time        =           1.000000 ps
  Production time           =           1.000000 ps
  Scaling time              =           1.000000 ps
  Scaling frequency         =           0.000100 ps
  Sampling frequency        =           0.005000 ps
  Write frequency           =           0.002000 ps
  TD-Force start time       =           0.000000 ps
  TD-Field start time       =           0.000000 ps



  Molecular dynamics equilibration :

  ** Time :            0.00500 ps :
     Properties:                   Instantaneous       Averaged
       Kinetic energy    (eV) =       1.362926          1.362926
       Potential energy  (eV) =   -1536.147517      -1536.147517
       Total energy      (eV) =   -1534.784591      -1534.784591
       Temperature       (K)  =     301.258648        301.258648
       C/S temperature   (K)  =       1.194674          1.194674
       Pressure         (GPa) =      -0.529820         -0.529820
       Cell parameter : a (A) =       9.202640          9.202640
       Cell parameter : b (A) =       9.202555          9.202555
       Cell parameter : c (A) =       9.202875          9.202875
       Cell angle : alpha (o) =      94.740138         94.740138
       Cell angle : beta  (o) =      94.741138         94.741138
       Cell angle : gamma (o) =      94.737793         94.737793
       Cell volume :   (A**3) =     770.903784        770.903784
  ** Time :            0.01000 ps :
     Properties:                   Instantaneous       Averaged
       Kinetic energy    (eV) =       1.358024          1.360475
       Potential energy  (eV) =   -1539.625478      -1537.886498
       Total energy      (eV) =   -1538.267454      -1536.526023
       Temperature       (K)  =     300.175204        300.716926
       C/S temperature   (K)  =       0.024510          0.609592
       Pressure         (GPa) =       1.411493          0.440865
       Cell parameter : a (A) =       9.202978          9.202809
       Cell parameter : b (A) =       9.202727          9.202641
       Cell parameter : c (A) =       9.203575          9.203225
       Cell angle : alpha (o) =      94.746258         94.743198
       Cell angle : beta  (o) =      94.748796         94.744967
       Cell angle : gamma (o) =      94.740129         94.738961
       Cell volume :   (A**3) =     770.985339        770.944561
  ** Time :            0.01500 ps :
     Properties:                   Instantaneous       Averaged
       Kinetic energy    (eV) =       1.355442          1.358797
       Potential energy  (eV) =   -1539.674207      -1538.482401
       Total energy      (eV) =   -1538.318765      -1537.123604
       Temperature       (K)  =     299.604470        300.346108
       C/S temperature   (K)  =       0.927746          0.715643
       Pressure         (GPa) =       3.031276          1.304183
       Cell parameter : a (A) =       9.204670          9.203429
       Cell parameter : b (A) =       9.204313          9.203198
       Cell parameter : c (A) =       9.205424          9.203958
       Cell angle : alpha (o) =      94.754530         94.746975
       Cell angle : beta  (o) =      94.757496         94.749143
       Cell angle : gamma (o) =      94.747085         94.741669
       Cell volume :   (A**3) =     771.385522        771.091548
  ** Time :            0.02000 ps :
     Properties:                   Instantaneous       Averaged
       Kinetic energy    (eV) =       1.358168          1.358640
       Potential energy  (eV) =   -1539.826631      -1538.818458
       Total energy      (eV) =   -1538.468463      -1537.459818
       Temperature       (K)  =     300.207091        300.311353
       C/S temperature   (K)  =       0.880842          0.756943
       Pressure         (GPa) =       4.124007          2.008314
       Cell parameter : a (A) =       9.207376          9.204416
       Cell parameter : b (A) =       9.207041          9.204159
       Cell parameter : c (A) =       9.208043          9.204979
       Cell angle : alpha (o) =      94.760831         94.750439
       Cell angle : beta  (o) =      94.762912         94.752586
       Cell angle : gamma (o) =      94.754765         94.744943
       Cell volume :   (A**3) =     772.036680        771.327831
  ** Time :            0.02500 ps :
     Properties:                   Instantaneous       Averaged
       Kinetic energy    (eV) =       1.348019          1.356516
       Potential energy  (eV) =   -1539.744444      -1539.003655
       Total energy      (eV) =   -1538.396425      -1537.647140
       Temperature       (K)  =     297.963738        299.841830
       C/S temperature   (K)  =       0.603792          0.726313
       Pressure         (GPa) =       4.679400          2.540874
       Cell parameter : a (A) =       9.210570          9.205647
       Cell parameter : b (A) =       9.210311          9.205389
       Cell parameter : c (A) =       9.211067          9.206197
       Cell angle : alpha (o) =      94.760437         94.752439
       Cell angle : beta  (o) =      94.761444         94.754357
       Cell angle : gamma (o) =      94.755854         94.747125
       Cell volume :   (A**3) =     772.833465        771.628958
  ** Time :            0.03000 ps :
     Properties:                   Instantaneous       Averaged
       Kinetic energy    (eV) =       1.342212          1.354132
       Potential energy  (eV) =   -1538.963305      -1538.996930
       Total energy      (eV) =   -1537.621094      -1537.642799
       Temperature       (K)  =     296.680088        299.314873
       C/S temperature   (K)  =       0.503165          0.689121
       Pressure         (GPa) =       4.944775          2.939136
       Cell parameter : a (A) =       9.213920          9.207026
       Cell parameter : b (A) =       9.213679          9.206771
       Cell parameter : c (A) =       9.214364          9.207558
       Cell angle : alpha (o) =      94.751880         94.752346
       Cell angle : beta  (o) =      94.752813         94.754100
       Cell angle : gamma (o) =      94.747079         94.747118
       Cell volume :   (A**3) =     773.706206        771.975166
  ** Time :            0.03500 ps :
     Properties:                   Instantaneous       Averaged
       Kinetic energy    (eV) =       1.350910          1.353672
       Potential energy  (eV) =   -1538.362014      -1538.906228
       Total energy      (eV) =   -1537.011104      -1537.552557
       Temperature       (K)  =     298.602675        299.213131
       C/S temperature   (K)  =       0.477071          0.658828
       Pressure         (GPa) =       4.643786          3.179797
       Cell parameter : a (A) =       9.217132          9.208469
       Cell parameter : b (A) =       9.216807          9.208205
       Cell parameter : c (A) =       9.217817          9.209023
       Cell angle : alpha (o) =      94.736599         94.750096
       Cell angle : beta  (o) =      94.739130         94.751961
       Cell angle : gamma (o) =      94.729807         94.744645
       Cell volume :   (A**3) =     774.585747        772.348106
  ** Time :            0.04000 ps :
     Properties:                   Instantaneous       Averaged
       Kinetic energy    (eV) =       1.369743          1.355680
       Potential energy  (eV) =   -1539.558833      -1538.987804
       Total energy      (eV) =   -1538.189091      -1537.632123
       Temperature       (K)  =     302.765445        299.657170
       C/S temperature   (K)  =       0.519048          0.641356
       Pressure         (GPa) =       3.721544          3.244774
       Cell parameter : a (A) =       9.219886          9.209896
       Cell parameter : b (A) =       9.219433          9.209608
       Cell parameter : c (A) =       9.220868          9.210504
       Cell angle : alpha (o) =      94.721407         94.746510
       Cell angle : beta  (o) =      94.725782         94.748689
       Cell angle : gamma (o) =      94.713639         94.740769
       Cell volume :   (A**3) =     775.349518        772.723283
  ** Time :            0.04500 ps :
     Properties:                   Instantaneous       Averaged
       Kinetic energy    (eV) =       1.360730          1.356241
       Potential energy  (eV) =   -1540.936104      -1539.204282
       Total energy      (eV) =   -1539.575374      -1537.848040
       Temperature       (K)  =     300.773354        299.781190
       C/S temperature   (K)  =       0.762247          0.654788
       Pressure         (GPa) =       2.798495          3.192988
       Cell parameter : a (A) =       9.222193          9.211263
       Cell parameter : b (A) =       9.221634          9.210944
       Cell parameter : c (A) =       9.223183          9.211913
       Cell angle : alpha (o) =      94.715752         94.743093
       Cell angle : beta  (o) =      94.720738         94.745583
       Cell angle : gamma (o) =      94.709723         94.737319
       Cell volume :   (A**3) =     775.941334        773.080844
  ** Time :            0.05000 ps :
     Properties:                   Instantaneous       Averaged
       Kinetic energy    (eV) =       1.344285          1.355046
       Potential energy  (eV) =   -1540.670120      -1539.350865
       Total energy      (eV) =   -1539.325834      -1537.995820
       Temperature       (K)  =     297.138434        299.516915
       C/S temperature   (K)  =       0.671768          0.656486
       Pressure         (GPa) =       1.861063          3.058212
       Cell parameter : a (A) =       9.224059          9.212542
       Cell parameter : b (A) =       9.223433          9.212193
       Cell parameter : c (A) =       9.224869          9.213208
       Cell angle : alpha (o) =      94.721165         94.740900
       Cell angle : beta  (o) =      94.726006         94.743626
       Cell angle : gamma (o) =      94.717414         94.735329
       Cell volume :   (A**3) =     776.369098        773.409669
  ** Time :            0.05500 ps :
     Properties:                   Instantaneous       Averaged
       Kinetic energy    (eV) =       1.351530          1.354726
       Potential energy  (eV) =   -1539.990010      -1539.408969
       Total energy      (eV) =   -1538.638480      -1538.054243
       Temperature       (K)  =     298.739822        299.446270
       C/S temperature   (K)  =       0.645921          0.655526
       Pressure         (GPa) =       0.627179          2.836372
       Cell parameter : a (A) =       9.225242          9.213697
       Cell parameter : b (A) =       9.224622          9.213323
       Cell parameter : c (A) =       9.225884          9.214361
       Cell angle : alpha (o) =      94.735015         94.740365
       Cell angle : beta  (o) =      94.739309         94.743233
       Cell angle : gamma (o) =      94.731942         94.735021
       Cell volume :   (A**3) =     776.602942        773.699967
  ** Time :            0.06000 ps :
     Properties:                   Instantaneous       Averaged
       Kinetic energy    (eV) =       1.360516          1.355209
       Potential energy  (eV) =   -1540.582671      -1539.506778
       Total energy      (eV) =   -1539.222155      -1538.151569
       Temperature       (K)  =     300.725948        299.552910
       C/S temperature   (K)  =       0.550479          0.646772
       Pressure         (GPa) =      -0.620461          2.548312
       Cell parameter : a (A) =       9.225431          9.214675
       Cell parameter : b (A) =       9.224866          9.214285
       Cell parameter : c (A) =       9.226086          9.215338
       Cell angle : alpha (o) =      94.751206         94.741268
       Cell angle : beta  (o) =      94.754566         94.744178
       Cell angle : gamma (o) =      94.745982         94.735934
       Cell volume :   (A**3) =     776.600094        773.941644
  ** Time :            0.06500 ps :
     Properties:                   Instantaneous       Averaged
       Kinetic energy    (eV) =       1.352648          1.355012
       Potential energy  (eV) =   -1540.947384      -1539.617594
       Total energy      (eV) =   -1539.594735      -1538.262582
       Temperature       (K)  =     298.986972        299.509376
       C/S temperature   (K)  =       0.490239          0.634731
       Pressure         (GPa) =      -1.327443          2.250740
       Cell parameter : a (A) =       9.224766          9.215451
       Cell parameter : b (A) =       9.224198          9.215048
       Cell parameter : c (A) =       9.225594          9.216127
       Cell angle : alpha (o) =      94.761203         94.742802
       Cell angle : beta  (o) =      94.763784         94.745686
       Cell angle : gamma (o) =      94.752604         94.737217
       Cell volume :   (A**3) =     776.414443        774.131859
  ** Time :            0.07000 ps :
     Properties:                   Instantaneous       Averaged
       Kinetic energy    (eV) =       1.351629          1.354770
       Potential energy  (eV) =   -1540.912424      -1539.710082
       Total energy      (eV) =   -1539.560795      -1538.355312
       Temperature       (K)  =     298.761637        299.455966
       C/S temperature   (K)  =       0.485662          0.624083
       Pressure         (GPa) =      -1.307470          1.997261
       Cell parameter : a (A) =       9.223705          9.216041
       Cell parameter : b (A) =       9.223098          9.215623
       Cell parameter : c (A) =       9.224689          9.216738
       Cell angle : alpha (o) =      94.760217         94.744046
       Cell angle : beta  (o) =      94.762190         94.746865
       Cell angle : gamma (o) =      94.750486         94.738164
       Cell volume :   (A**3) =     776.162250        774.276887
  ** Time :            0.07500 ps :
     Properties:                   Instantaneous       Averaged
       Kinetic energy    (eV) =       1.349988          1.354451
       Potential energy  (eV) =   -1540.744692      -1539.779056
       Total energy      (eV) =   -1539.394704      -1538.424604
       Temperature       (K)  =     298.398971        299.385500
       C/S temperature   (K)  =       0.627567          0.624315
       Pressure         (GPa) =      -0.508838          1.830611
       Cell parameter : a (A) =       9.222842          9.216494
       Cell parameter : b (A) =       9.222241          9.216064
       Cell parameter : c (A) =       9.223904          9.217216
       Cell angle : alpha (o) =      94.750350         94.744466
       Cell angle : beta  (o) =      94.752404         94.747234
       Cell angle : gamma (o) =      94.742314         94.738441
       Cell volume :   (A**3) =     775.985977        774.390826
  ** Time :            0.08000 ps :
     Properties:                   Instantaneous       Averaged
       Kinetic energy    (eV) =       1.351722          1.354281
       Potential energy  (eV) =   -1540.541482      -1539.826707
       Total energy      (eV) =   -1539.189760      -1538.472427
       Temperature       (K)  =     298.782125        299.347789
       C/S temperature   (K)  =       0.575113          0.621240
       Pressure         (GPa) =       0.603874          1.753924
       Cell parameter : a (A) =       9.222684          9.216881
       Cell parameter : b (A) =       9.222120          9.216442
       Cell parameter : c (A) =       9.223769          9.217626
       Cell angle : alpha (o) =      94.737948         94.744058
       Cell angle : beta  (o) =      94.741343         94.746866
       Cell angle : gamma (o) =      94.731699         94.738020
       Cell volume :   (A**3) =     775.993161        774.490972
  ** Time :            0.08500 ps :
     Properties:                   Instantaneous       Averaged
       Kinetic energy    (eV) =       1.350647          1.354067
       Potential energy  (eV) =   -1540.486673      -1539.865529
       Total energy      (eV) =   -1539.136026      -1538.511462
       Temperature       (K)  =     298.544594        299.300542
       C/S temperature   (K)  =       0.538007          0.616344
       Pressure         (GPa) =       1.462440          1.736370
       Cell parameter : a (A) =       9.223347          9.217261
       Cell parameter : b (A) =       9.222748          9.216813
       Cell parameter : c (A) =       9.224390          9.218024
       Cell angle : alpha (o) =      94.728969         94.743171
       Cell angle : beta  (o) =      94.733782         94.746096
       Cell angle : gamma (o) =      94.723192         94.737147
       Cell volume :   (A**3) =     776.184910        774.590616
  ** Time :            0.09000 ps :
     Properties:                   Instantaneous       Averaged
       Kinetic energy    (eV) =       1.352248          1.353966
       Potential energy  (eV) =   -1540.234062      -1539.886003
       Total energy      (eV) =   -1538.881814      -1538.532037
       Temperature       (K)  =     298.898508        299.278207
       C/S temperature   (K)  =       0.567972          0.613657
       Pressure         (GPa) =       1.930562          1.746493
       Cell parameter : a (A) =       9.224611          9.217670
       Cell parameter : b (A) =       9.223927          9.217209
       Cell parameter : c (A) =       9.225595          9.218444
       Cell angle : alpha (o) =      94.726929         94.742268
       Cell angle : beta  (o) =      94.731573         94.745289
       Cell angle : gamma (o) =      94.720950         94.736248
       Cell volume :   (A**3) =     776.500035        774.696695
  ** Time :            0.09500 ps :
     Properties:                   Instantaneous       Averaged
       Kinetic energy    (eV) =       1.364520          1.354521
       Potential energy  (eV) =   -1540.686219      -1539.928120
       Total energy      (eV) =   -1539.321700      -1538.573598
       Temperature       (K)  =     301.611010        299.400986
       C/S temperature   (K)  =       0.837368          0.625431
       Pressure         (GPa) =       1.585643          1.737310
       Cell parameter : a (A) =       9.226013          9.218109
       Cell parameter : b (A) =       9.225258          9.217632
       Cell parameter : c (A) =       9.226914          9.218890
       Cell angle : alpha (o) =      94.728571         94.741548
       Cell angle : beta  (o) =      94.731531         94.744565
       Cell angle : gamma (o) =      94.722674         94.735533
       Cell volume :   (A**3) =     776.836972        774.809341
  ** Time :            0.10000 ps :
     Properties:                   Instantaneous       Averaged
       Kinetic energy    (eV) =       1.359119          1.354751
       Potential energy  (eV) =   -1541.437237      -1540.003575
       Total energy      (eV) =   -1540.078117      -1538.648824
       Temperature       (K)  =     300.417244        299.451799
       C/S temperature   (K)  =       0.779672          0.633143
       Pressure         (GPa) =       0.477685          1.673916
       Cell parameter : a (A) =       9.226828          9.218545
       Cell parameter : b (A) =       9.226027          9.218052
       Cell parameter : c (A) =       9.227578          9.219324
       Cell angle : alpha (o) =      94.727584         94.740849
       Cell angle : beta  (o) =      94.728263         94.743750
       Cell angle : gamma (o) =      94.722812         94.734897
       Cell volume :   (A**3) =     777.031356        774.920442
  ** Time :            0.10500 ps :
     Properties:                   Instantaneous       Averaged
       Kinetic energy    (eV) =       1.349443          1.354498
       Potential energy  (eV) =   -1541.442551      -1540.072098
       Total energy      (eV) =   -1540.093109      -1538.717600
       Temperature       (K)  =     298.278449        299.395925
       C/S temperature   (K)  =       0.532647          0.628358
       Pressure         (GPa) =      -0.449106          1.572830
       Cell parameter : a (A) =       9.226787          9.218937
       Cell parameter : b (A) =       9.226057          9.218433
       Cell parameter : c (A) =       9.227379          9.219708
       Cell angle : alpha (o) =      94.724014         94.740048
       Cell angle : beta  (o) =      94.723196         94.742771
       Cell angle : gamma (o) =      94.721110         94.734241
       Cell volume :   (A**3) =     777.026393        775.020725
  ** Time :            0.11000 ps :
     Properties:                   Instantaneous       Averaged
       Kinetic energy    (eV) =       1.345675          1.354097
       Potential energy  (eV) =   -1540.934501      -1540.111298
       Total energy      (eV) =   -1539.588826      -1538.757201
       Temperature       (K)  =     297.445622        299.307275
       C/S temperature   (K)  =       0.511671          0.623054
       Pressure         (GPa) =      -0.530628          1.477418
       Cell parameter : a (A) =       9.226322          9.219273
       Cell parameter : b (A) =       9.225714          9.218764
       Cell parameter : c (A) =       9.226866          9.220033
       Cell angle : alpha (o) =      94.721167         94.739190
       Cell angle : beta  (o) =      94.721301         94.741795
       Cell angle : gamma (o) =      94.719744         94.733582
       Cell volume :   (A**3) =     776.922655        775.107176
  ** Time :            0.11500 ps :
     Properties:                   Instantaneous       Averaged
       Kinetic energy    (eV) =       1.344868          1.353696
       Potential energy  (eV) =   -1540.058836      -1540.109017
       Total energy      (eV) =   -1538.713968      -1538.755321
       Temperature       (K)  =     297.267160        299.218574
       C/S temperature   (K)  =       0.693245          0.626105
       Pressure         (GPa) =       0.010852          1.413746
       Cell parameter : a (A) =       9.226136          9.219571
       Cell parameter : b (A) =       9.225455          9.219055
       Cell parameter : c (A) =       9.226875          9.220331
       Cell angle : alpha (o) =      94.723538         94.738509
       Cell angle : beta  (o) =      94.727729         94.741184
       Cell angle : gamma (o) =      94.722028         94.733079
       Cell volume :   (A**3) =     776.872375        775.183924
  ** Time :            0.12000 ps :
     Properties:                   Instantaneous       Averaged
       Kinetic energy    (eV) =       1.360514          1.353980
       Potential energy  (eV) =   -1539.828721      -1540.097338
       Total energy      (eV) =   -1538.468207      -1538.743358
       Temperature       (K)  =     300.725674        299.281370
       C/S temperature   (K)  =       0.716316          0.629864
       Pressure         (GPa) =       0.119436          1.359775
       Cell parameter : a (A) =       9.226409          9.219856
       Cell parameter : b (A) =       9.225389          9.219319
       Cell parameter : c (A) =       9.227536          9.220631
       Cell angle : alpha (o) =      94.735654         94.738390
       Cell angle : beta  (o) =      94.745357         94.741358
       Cell angle : gamma (o) =      94.732312         94.733047
       Cell volume :   (A**3) =     776.896005        775.255261
  ** Time :            0.12500 ps :
     Properties:                   Instantaneous       Averaged
       Kinetic energy    (eV) =       1.364941          1.354419
       Potential energy  (eV) =   -1540.810009      -1540.125845
       Total energy      (eV) =   -1539.445068      -1538.771426
       Temperature       (K)  =     301.704190        299.378283
       C/S temperature   (K)  =       0.818503          0.637410
       Pressure         (GPa) =      -0.141989          1.299711
       Cell parameter : a (A) =       9.226642          9.220128
       Cell parameter : b (A) =       9.225344          9.219560
       Cell parameter : c (A) =       9.228155          9.220932
       Cell angle : alpha (o) =      94.754902         94.739051
       Cell angle : beta  (o) =      94.767596         94.742407
       Cell angle : gamma (o) =      94.748556         94.733668
       Cell volume :   (A**3) =     776.892478        775.320749
  ** Time :            0.13000 ps :
     Properties:                   Instantaneous       Averaged
       Kinetic energy    (eV) =       1.356588          1.354502
       Potential energy  (eV) =   -1541.357877      -1540.173231
       Total energy      (eV) =   -1540.001289      -1538.818729
       Temperature       (K)  =     299.857791        299.396726
       C/S temperature   (K)  =       0.837947          0.645123
       Pressure         (GPa) =      -0.122188          1.245069
       Cell parameter : a (A) =       9.226677          9.220380
       Cell parameter : b (A) =       9.225387          9.219784
       Cell parameter : c (A) =       9.228396          9.221219
       Cell angle : alpha (o) =      94.771311         94.740291
       Cell angle : beta  (o) =      94.782788         94.743960
       Cell angle : gamma (o) =      94.761884         94.734753
       Cell volume :   (A**3) =     776.863489        775.380086
  ** Time :            0.13500 ps :
     Properties:                   Instantaneous       Averaged
       Kinetic energy    (eV) =       1.350503          1.354354
       Potential energy  (eV) =   -1541.108408      -1540.207867
       Total energy      (eV) =   -1539.757905      -1538.853513
       Temperature       (K)  =     298.512705        299.363984
       C/S temperature   (K)  =       0.782981          0.650229
       Pressure         (GPa) =       0.117611          1.203315
       Cell parameter : a (A) =       9.226678          9.220613
       Cell parameter : b (A) =       9.225595          9.219999
       Cell parameter : c (A) =       9.228343          9.221483
       Cell angle : alpha (o) =      94.777621         94.741674
       Cell angle : beta  (o) =      94.785651         94.745504
       Cell angle : gamma (o) =      94.765345         94.735886
       Cell volume :   (A**3) =     776.860935        775.434932
  ** Time :            0.14000 ps :
     Properties:                   Instantaneous       Averaged
       Kinetic energy    (eV) =       1.357196          1.354455
       Potential energy  (eV) =   -1540.918575      -1540.233250
       Total energy      (eV) =   -1539.561379      -1538.878794
       Temperature       (K)  =     299.992137        299.386418
       C/S temperature   (K)  =       0.769145          0.654476
       Pressure         (GPa) =       0.371459          1.173539
       Cell parameter : a (A) =       9.226695          9.220830
       Cell parameter : b (A) =       9.225855          9.220208
       Cell parameter : c (A) =       9.228218          9.221723
       Cell angle : alpha (o) =      94.770654         94.742709
       Cell angle : beta  (o) =      94.776030         94.746595
       Cell angle : gamma (o) =      94.756420         94.736619
       Cell volume :   (A**3) =     776.905503        775.487452
  ** Time :            0.14500 ps :
     Properties:                   Instantaneous       Averaged
       Kinetic energy    (eV) =       1.357402          1.354557
       Potential energy  (eV) =   -1541.270655      -1540.269022
       Total energy      (eV) =   -1539.913253      -1538.914465
       Temperature       (K)  =     300.037672        299.408875
       C/S temperature   (K)  =       0.833670          0.660655
       Pressure         (GPa) =       0.650286          1.155363
       Cell parameter : a (A) =       9.226793          9.221036
       Cell parameter : b (A) =       9.226069          9.220410
       Cell parameter : c (A) =       9.228334          9.221951
       Cell angle : alpha (o) =      94.755729         94.743158
       Cell angle : beta  (o) =      94.760726         94.747082
       Cell angle : gamma (o) =      94.741876         94.736801
       Cell volume :   (A**3) =     776.997094        775.539509
  ** Time :            0.15000 ps :
     Properties:                   Instantaneous       Averaged
       Kinetic energy    (eV) =       1.349903          1.354402
       Potential energy  (eV) =   -1541.058344      -1540.295333
       Total energy      (eV) =   -1539.708441      -1538.940931
       Temperature       (K)  =     298.380048        299.374581
       C/S temperature   (K)  =       0.818536          0.665917
       Pressure         (GPa) =       0.785144          1.142825
       Cell parameter : a (A) =       9.227178          9.221240
       Cell parameter : b (A) =       9.226378          9.220609
       Cell parameter : c (A) =       9.228827          9.222181
       Cell angle : alpha (o) =      94.744263         94.743195
       Cell angle : beta  (o) =      94.750959         94.747211
       Cell angle : gamma (o) =      94.733242         94.736682
       Cell volume :   (A**3) =     777.134118        775.592663
  ** Time :            0.15500 ps :
     Properties:                   Instantaneous       Averaged
       Kinetic energy    (eV) =       1.352417          1.354338
       Potential energy  (eV) =   -1540.593443      -1540.304949
       Total energy      (eV) =   -1539.241026      -1538.950611
       Temperature       (K)  =     298.935767        299.360426
       C/S temperature   (K)  =       0.738382          0.668255
       Pressure         (GPa) =       0.200669          1.112284
       Cell parameter : a (A) =       9.227674          9.221448
       Cell parameter : b (A) =       9.226730          9.220807
       Cell parameter : c (A) =       9.229264          9.222409
       Cell angle : alpha (o) =      94.742723         94.743179
       Cell angle : beta  (o) =      94.752471         94.747381
       Cell angle : gamma (o) =      94.736295         94.736670
       Cell volume :   (A**3) =     777.238542        775.645755
  ** Time :            0.16000 ps :
     Properties:                   Instantaneous       Averaged
       Kinetic energy    (eV) =       1.360882          1.354542
       Potential energy  (eV) =   -1540.939147      -1540.324768
       Total energy      (eV) =   -1539.578265      -1538.970226
       Temperature       (K)  =     300.806860        299.405627
       C/S temperature   (K)  =       0.705654          0.669424
       Pressure         (GPa) =      -0.899600          1.049499
       Cell parameter : a (A) =       9.227690          9.221643
       Cell parameter : b (A) =       9.226770          9.220993
       Cell parameter : c (A) =       9.228862          9.222611
       Cell angle : alpha (o) =      94.749187         94.743367
       Cell angle : beta  (o) =      94.760800         94.747800
       Cell angle : gamma (o) =      94.748084         94.737026
       Cell volume :   (A**3) =     777.176553        775.693593
  ** Time :            0.16500 ps :
     Properties:                   Instantaneous       Averaged
       Kinetic energy    (eV) =       1.355368          1.354567
       Potential energy  (eV) =   -1541.369961      -1540.356440
       Total energy      (eV) =   -1540.014593      -1539.001873
       Temperature       (K)  =     299.588100        299.411156
       C/S temperature   (K)  =       0.800446          0.673394
       Pressure         (GPa) =      -1.616154          0.969032
       Cell parameter : a (A) =       9.226984          9.221805
       Cell parameter : b (A) =       9.226269          9.221153
       Cell parameter : c (A) =       9.227596          9.222762
       Cell angle : alpha (o) =      94.755970         94.743749
       Cell angle : beta  (o) =      94.766609         94.748370
       Cell angle : gamma (o) =      94.758613         94.737680
       Cell volume :   (A**3) =     776.939625        775.731351
  ** Time :            0.17000 ps :
     Properties:                   Instantaneous       Averaged
       Kinetic energy    (eV) =       1.345649          1.354305
       Potential energy  (eV) =   -1540.904490      -1540.372560
       Total energy      (eV) =   -1539.558842      -1539.018255
       Temperature       (K)  =     297.439760        299.353174
       C/S temperature   (K)  =       0.701057          0.674208
       Pressure         (GPa) =      -1.745760          0.889566
       Cell parameter : a (A) =       9.225781          9.221922
       Cell parameter : b (A) =       9.225259          9.221274
       Cell parameter : c (A) =       9.226091          9.222860
       Cell angle : alpha (o) =      94.757049         94.744140
       Cell angle : beta  (o) =      94.765027         94.748860
       Cell angle : gamma (o) =      94.760455         94.738350
       Cell volume :   (A**3) =     776.624865        775.757631
  ** Time :            0.17500 ps :
     Properties:                   Instantaneous       Averaged
       Kinetic energy    (eV) =       1.354356          1.354307
       Potential energy  (eV) =   -1540.387753      -1540.372994
       Total energy      (eV) =   -1539.033398      -1539.018687
       Temperature       (K)  =     299.364340        299.353493
       C/S temperature   (K)  =       0.604745          0.672223
       Pressure         (GPa) =      -1.271718          0.828132
       Cell parameter : a (A) =       9.224482          9.221995
       Cell parameter : b (A) =       9.223961          9.221351
       Cell parameter : c (A) =       9.224986          9.222920
       Cell angle : alpha (o) =      94.751351         94.744346
       Cell angle : beta  (o) =      94.756645         94.749082
       Cell angle : gamma (o) =      94.752744         94.738761
       Cell volume :   (A**3) =     776.340337        775.774280
  ** Time :            0.18000 ps :
     Properties:                   Instantaneous       Averaged
       Kinetic energy    (eV) =       1.363717          1.354568
       Potential energy  (eV) =   -1541.049636      -1540.391789
       Total energy      (eV) =   -1539.685919      -1539.037221
       Temperature       (K)  =     301.433628        299.411274
       C/S temperature   (K)  =       0.800314          0.675781
       Pressure         (GPa) =      -0.409863          0.793905
       Cell parameter : a (A) =       9.223581          9.222039
       Cell parameter : b (A) =       9.222854          9.221392
       Cell parameter : c (A) =       9.224756          9.222971
       Cell angle : alpha (o) =      94.744521         94.744351
       Cell angle : beta  (o) =      94.748930         94.749078
       Cell angle : gamma (o) =      94.741377         94.738834
       Cell volume :   (A**3) =     776.184006        775.785661
  ** Time :            0.18500 ps :
     Properties:                   Instantaneous       Averaged
       Kinetic energy    (eV) =       1.356565          1.354622
       Potential energy  (eV) =   -1541.520757      -1540.422302
       Total energy      (eV) =   -1540.164192      -1539.067680
       Temperature       (K)  =     299.852772        299.423207
       C/S temperature   (K)  =       0.896732          0.681753
       Pressure         (GPa) =       0.391834          0.783039
       Cell parameter : a (A) =       9.223345          9.222074
       Cell parameter : b (A) =       9.222447          9.221421
       Cell parameter : c (A) =       9.225255          9.223033
       Cell angle : alpha (o) =      94.742741         94.744308
       Cell angle : beta  (o) =      94.748759         94.749070
       Cell angle : gamma (o) =      94.733868         94.738700
       Cell volume :   (A**3) =     776.183609        775.796417
  ** Time :            0.19000 ps :
     Properties:                   Instantaneous       Averaged
       Kinetic energy    (eV) =       1.350507          1.354514
       Potential energy  (eV) =   -1541.247041      -1540.444006
       Total energy      (eV) =   -1539.896535      -1539.089492
       Temperature       (K)  =     298.513550        299.399268
       C/S temperature   (K)  =       0.819272          0.685372
       Pressure         (GPa) =       0.941435          0.787084
       Cell parameter : a (A) =       9.223753          9.222118
       Cell parameter : b (A) =       9.222916          9.221460
       Cell parameter : c (A) =       9.226031          9.223112
       Cell angle : alpha (o) =      94.747086         94.744381
       Cell angle : beta  (o) =      94.755334         94.749234
       Cell angle : gamma (o) =      94.734056         94.738578
       Cell volume :   (A**3) =     776.308881        775.809902
  ** Time :            0.19500 ps :
     Properties:                   Instantaneous       Averaged
       Kinetic energy    (eV) =       1.353497          1.354488
       Potential energy  (eV) =   -1540.909487      -1540.455941
       Total energy      (eV) =   -1539.555990      -1539.101454
       Temperature       (K)  =     299.174580        299.393507
       C/S temperature   (K)  =       0.722230          0.686317
       Pressure         (GPa) =       0.993551          0.792195
       Cell parameter : a (A) =       9.224543          9.222181
       Cell parameter : b (A) =       9.223989          9.221525
       Cell parameter : c (A) =       9.226680          9.223204
       Cell angle : alpha (o) =      94.754152         94.744631
       Cell angle : beta  (o) =      94.762364         94.749571
       Cell angle : gamma (o) =      94.740505         94.738627
       Cell volume :   (A**3) =     776.494930        775.827467
  ** Time :            0.20000 ps :
     Properties:                   Instantaneous       Averaged
       Kinetic energy    (eV) =       1.355855          1.354522
       Potential energy  (eV) =   -1540.960022      -1540.468543
       Total energy      (eV) =   -1539.604168      -1539.114021
       Temperature       (K)  =     299.695691        299.401062
       C/S temperature   (K)  =       0.795271          0.689041
       Pressure         (GPa) =       0.362787          0.781327
       Cell parameter : a (A) =       9.225171          9.222255
       Cell parameter : b (A) =       9.224863          9.221608
       Cell parameter : c (A) =       9.226884          9.223296
       Cell angle : alpha (o) =      94.756930         94.744939
       Cell angle : beta  (o) =      94.762826         94.749902
       Cell angle : gamma (o) =      94.745729         94.738805
       Cell volume :   (A**3) =     776.628070        775.847482
  ** Time :            0.20500 ps :
     Properties:                   Instantaneous       Averaged
       Kinetic energy    (eV) =       1.351517          1.354448
       Potential energy  (eV) =   -1540.828474      -1540.477322
       Total energy      (eV) =   -1539.476957      -1539.122873
       Temperature       (K)  =     298.736900        299.384863
       C/S temperature   (K)  =       0.727714          0.689984
       Pressure         (GPa) =      -0.505354          0.749957
       Cell parameter : a (A) =       9.225149          9.222326
       Cell parameter : b (A) =       9.224825          9.221687
       Cell parameter : c (A) =       9.226587          9.223376
       Cell angle : alpha (o) =      94.751983         94.745111
       Cell angle : beta  (o) =      94.755925         94.750049
       Cell angle : gamma (o) =      94.743763         94.738926
       Cell volume :   (A**3) =     776.615202        775.866207
  ** Time :            0.21000 ps :
     Properties:                   Instantaneous       Averaged
       Kinetic energy    (eV) =       1.356506          1.354497
       Potential energy  (eV) =   -1540.725805      -1540.483238
       Total energy      (eV) =   -1539.369300      -1539.128741
       Temperature       (K)  =     299.839575        299.395689
       C/S temperature   (K)  =       0.663181          0.689346
       Pressure         (GPa) =      -1.044841          0.707363
       Cell parameter : a (A) =       9.224483          9.222377
       Cell parameter : b (A) =       9.223927          9.221740
       Cell parameter : c (A) =       9.226017          9.223439
       Cell angle : alpha (o) =      94.743391         94.745070
       Cell angle : beta  (o) =      94.746522         94.749965
       Cell angle : gamma (o) =      94.736047         94.738857
       Cell volume :   (A**3) =     776.467311        775.880519
  ** Time :            0.21500 ps :
     Properties:                   Instantaneous       Averaged
       Kinetic energy    (eV) =       1.359467          1.354613
       Potential energy  (eV) =   -1541.186504      -1540.499593
       Total energy      (eV) =   -1539.827037      -1539.144980
       Temperature       (K)  =     300.494184        299.421236
       C/S temperature   (K)  =       0.806387          0.692068
       Pressure         (GPa) =      -1.074065          0.666112
       Cell parameter : a (A) =       9.223653          9.222407
       Cell parameter : b (A) =       9.222845          9.221766
       Cell parameter : c (A) =       9.225306          9.223482
       Cell angle : alpha (o) =      94.737816         94.744901
       Cell angle : beta  (o) =      94.740772         94.749752
       Cell angle : gamma (o) =      94.729997         94.738651
       Cell volume :   (A**3) =     776.267969        775.889530
  ** Time :            0.22000 ps :
     Properties:                   Instantaneous       Averaged
       Kinetic energy    (eV) =       1.354660          1.354614
       Potential energy  (eV) =   -1541.283748      -1540.517415
       Total energy      (eV) =   -1539.929089      -1539.162801
       Temperature       (K)  =     299.431551        299.421470
       C/S temperature   (K)  =       0.908622          0.696989
       Pressure         (GPa) =      -0.810788          0.632692
       Cell parameter : a (A) =       9.223116          9.222423
       Cell parameter : b (A) =       9.222188          9.221776
       Cell parameter : c (A) =       9.224500          9.223505
       Cell angle : alpha (o) =      94.738491         94.744755
       Cell angle : beta  (o) =      94.742177         94.749579
       Cell angle : gamma (o) =      94.732804         94.738518
       Cell volume :   (A**3) =     776.093755        775.894171
  ** Time :            0.22500 ps :
     Properties:                   Instantaneous       Averaged
       Kinetic energy    (eV) =       1.355055          1.354624
       Potential energy  (eV) =   -1541.136478      -1540.531172
       Total energy      (eV) =   -1539.781423      -1539.176548
       Temperature       (K)  =     299.519011        299.423638
       C/S temperature   (K)  =       0.851826          0.700430
       Pressure         (GPa) =      -0.495740          0.607711
       Cell parameter : a (A) =       9.222910          9.222434
       Cell parameter : b (A) =       9.222063          9.221782
       Cell parameter : c (A) =       9.223756          9.223511
       Cell angle : alpha (o) =      94.743594         94.744729
       Cell angle : beta  (o) =      94.749304         94.749573
       Cell angle : gamma (o) =      94.743434         94.738627
       Cell volume :   (A**3) =     775.975005        775.895967
  ** Time :            0.23000 ps :
     Properties:                   Instantaneous       Averaged
       Kinetic energy    (eV) =       1.353648          1.354603
       Potential energy  (eV) =   -1541.073777      -1540.542968
       Total energy      (eV) =   -1539.720129      -1539.188365
       Temperature       (K)  =     299.207876        299.418947
       C/S temperature   (K)  =       0.791591          0.702412
       Pressure         (GPa) =      -0.288919          0.588272
       Cell parameter : a (A) =       9.222804          9.222442
       Cell parameter : b (A) =       9.222131          9.221790
       Cell parameter : c (A) =       9.223276          9.223506
       Cell angle : alpha (o) =      94.748270         94.744806
       Cell angle : beta  (o) =      94.756263         94.749719
       Cell angle : gamma (o) =      94.752431         94.738927
       Cell volume :   (A**3) =     775.905884        775.896183
  ** Time :            0.23500 ps :
     Properties:                   Instantaneous       Averaged
       Kinetic energy    (eV) =       1.352610          1.354560
       Potential energy  (eV) =   -1540.830261      -1540.549080
       Total energy      (eV) =   -1539.477651      -1539.194520
       Temperature       (K)  =     298.978421        299.409574
       C/S temperature   (K)  =       0.789262          0.704260
       Pressure         (GPa) =      -0.307288          0.569255
       Cell parameter : a (A) =       9.222576          9.222445
       Cell parameter : b (A) =       9.221871          9.221791
       Cell parameter : c (A) =       9.223160          9.223498
       Cell angle : alpha (o) =      94.748530         94.744886
       Cell angle : beta  (o) =      94.757269         94.749879
       Cell angle : gamma (o) =      94.750763         94.739179
       Cell volume :   (A**3) =     775.855594        775.895319
  ** Time :            0.24000 ps :
     Properties:                   Instantaneous       Averaged
       Kinetic energy    (eV) =       1.356162          1.354594
       Potential energy  (eV) =   -1540.723488      -1540.552714
       Total energy      (eV) =   -1539.367327      -1539.198120
       Temperature       (K)  =     299.763539        299.416949
       C/S temperature   (K)  =       0.851518          0.707328
       Pressure         (GPa) =      -0.450993          0.548050
       Cell parameter : a (A) =       9.222083          9.222437
       Cell parameter : b (A) =       9.221032          9.221775
       Cell parameter : c (A) =       9.223287          9.223494
       Cell angle : alpha (o) =      94.743199         94.744851
       Cell angle : beta  (o) =      94.751083         94.749904
       Cell angle : gamma (o) =      94.736733         94.739128
       Cell volume :   (A**3) =     775.785694        775.893036
  ** Time :            0.24500 ps :
     Properties:                   Instantaneous       Averaged
       Kinetic energy    (eV) =       1.358023          1.354664
       Potential energy  (eV) =   -1540.868537      -1540.559159
       Total energy      (eV) =   -1539.510513      -1539.204496
       Temperature       (K)  =     300.175010        299.432419
       C/S temperature   (K)  =       0.881094          0.710874
       Pressure         (GPa) =      -0.348602          0.529804
       Cell parameter : a (A) =       9.221418          9.222417
       Cell parameter : b (A) =       9.220015          9.221740
       Cell parameter : c (A) =       9.223487          9.223494
       Cell angle : alpha (o) =      94.734349         94.744636
       Cell angle : beta  (o) =      94.741603         94.749735
       Cell angle : gamma (o) =      94.716761         94.738672
       Cell volume :   (A**3) =     775.708320        775.889266
  ** Time :            0.25000 ps :
     Properties:                   Instantaneous       Averaged
       Kinetic energy    (eV) =       1.358110          1.354733
       Potential energy  (eV) =   -1541.106739      -1540.570111
       Total energy      (eV) =   -1539.748629      -1539.215378
       Temperature       (K)  =     300.194174        299.447654
       C/S temperature   (K)  =       0.859087          0.713838
       Pressure         (GPa) =      -0.182112          0.515596
       Cell parameter : a (A) =       9.220891          9.222386
       Cell parameter : b (A) =       9.219389          9.221693
       Cell parameter : c (A) =       9.223680          9.223498
       Cell angle : alpha (o) =      94.727550         94.744294
       Cell angle : beta  (o) =      94.734887         94.749438
       Cell angle : gamma (o) =      94.701728         94.737933
       Cell volume :   (A**3) =     775.662645        775.884733
  ** Time :            0.25500 ps :
     Properties:                   Instantaneous       Averaged
       Kinetic energy    (eV) =       1.355904          1.354755
       Potential energy  (eV) =   -1541.248336      -1540.583409
       Total energy      (eV) =   -1539.892432      -1539.228654
       Temperature       (K)  =     299.706601        299.452732
       C/S temperature   (K)  =       0.829377          0.716104
       Pressure         (GPa) =      -0.285184          0.499920
       Cell parameter : a (A) =       9.220590          9.222351
       Cell parameter : b (A) =       9.219136          9.221642
       Cell parameter : c (A) =       9.223719          9.223502
       Cell angle : alpha (o) =      94.727008         94.743956
       Cell angle : beta  (o) =      94.734868         94.749152
       Cell angle : gamma (o) =      94.698419         94.737158
       Cell volume :   (A**3) =     775.624123        775.879623
  ** Time :            0.26000 ps :
     Properties:                   Instantaneous       Averaged
       Kinetic energy    (eV) =       1.355666          1.354773
       Potential energy  (eV) =   -1541.223020      -1540.595709
       Total energy      (eV) =   -1539.867354      -1539.240936
       Temperature       (K)  =     299.653952        299.456601
       C/S temperature   (K)  =       0.909659          0.719826
       Pressure         (GPa) =      -0.464597          0.481415
       Cell parameter : a (A) =       9.220415          9.222314
       Cell parameter : b (A) =       9.218928          9.221590
       Cell parameter : c (A) =       9.223509          9.223502
       Cell angle : alpha (o) =      94.731207         94.743710
       Cell angle : beta  (o) =      94.740239         94.748981
       Cell angle : gamma (o) =      94.704453         94.736529
       Cell volume :   (A**3) =     775.554954        775.873380
  ** Time :            0.26500 ps :
     Properties:                   Instantaneous       Averaged
       Kinetic energy    (eV) =       1.353874          1.354756
       Potential energy  (eV) =   -1541.081573      -1540.604877
       Total energy      (eV) =   -1539.727699      -1539.250121
       Temperature       (K)  =     299.257941        299.452853
       C/S temperature   (K)  =       0.914343          0.723496
       Pressure         (GPa) =      -0.523202          0.462516
       Cell parameter : a (A) =       9.220231          9.222274
       Cell parameter : b (A) =       9.218627          9.221534
       Cell parameter : c (A) =       9.223164          9.223496
       Cell angle : alpha (o) =      94.735302         94.743552
       Cell angle : beta  (o) =      94.746175         94.748928
       Cell angle : gamma (o) =      94.711515         94.736057
       Cell volume :   (A**3) =     775.464153        775.865659
  ** Time :            0.27000 ps :
     Properties:                   Instantaneous       Averaged
       Kinetic energy    (eV) =       1.355182          1.354764
       Potential energy  (eV) =   -1540.908473      -1540.610499
       Total energy      (eV) =   -1539.553292      -1539.255735
       Temperature       (K)  =     299.546919        299.454595
       C/S temperature   (K)  =       0.783132          0.724600
       Pressure         (GPa) =      -0.615077          0.442620
       Cell parameter : a (A) =       9.219937          9.222231
       Cell parameter : b (A) =       9.218242          9.221473
       Cell parameter : c (A) =       9.222722          9.223481
       Cell angle : alpha (o) =      94.736008         94.743412
       Cell angle : beta  (o) =      94.748651         94.748923
       Cell angle : gamma (o) =      94.714447         94.735657
       Cell volume :   (A**3) =     775.362472        775.856340
  ** Time :            0.27500 ps :
     Properties:                   Instantaneous       Averaged
       Kinetic energy    (eV) =       1.357097          1.354806
       Potential energy  (eV) =   -1541.078445      -1540.619007
       Total energy      (eV) =   -1539.721348      -1539.264201
       Temperature       (K)  =     299.970351        299.463972
       C/S temperature   (K)  =       0.784948          0.725698
       Pressure         (GPa) =      -0.624366          0.423286
       Cell parameter : a (A) =       9.219593          9.222183
       Cell parameter : b (A) =       9.217848          9.221407
       Cell parameter : c (A) =       9.222040          9.223455
       Cell angle : alpha (o) =      94.734246         94.743245
       Cell angle : beta  (o) =      94.747174         94.748891
       Cell angle : gamma (o) =      94.716128         94.735302
       Cell volume :   (A**3) =     775.244875        775.845223
  ** Time :            0.28000 ps :
     Properties:                   Instantaneous       Averaged
       Kinetic energy    (eV) =       1.354097          1.354794
       Potential energy  (eV) =   -1541.073698      -1540.627126
       Total energy      (eV) =   -1539.719601      -1539.272333
       Temperature       (K)  =     299.307138        299.461172
       C/S temperature   (K)  =       0.916352          0.729102
       Pressure         (GPa) =      -0.139531          0.413278
       Cell parameter : a (A) =       9.219494          9.222135
       Cell parameter : b (A) =       9.217750          9.221342
       Cell parameter : c (A) =       9.221330          9.223417
       Cell angle : alpha (o) =      94.733548         94.743072
       Cell angle : beta  (o) =      94.744772         94.748818
       Cell angle : gamma (o) =      94.720955         94.735046
       Cell volume :   (A**3) =     775.166608        775.833105
  ** Time :            0.28500 ps :
     Properties:                   Instantaneous       Averaged
       Kinetic energy    (eV) =       1.354325          1.354785
       Potential energy  (eV) =   -1540.797346      -1540.630113
       Total energy      (eV) =   -1539.443021      -1539.275327
       Temperature       (K)  =     299.357600        299.459355
       C/S temperature   (K)  =       0.909497          0.732267
       Pressure         (GPa) =       0.597311          0.416484
       Cell parameter : a (A) =       9.219898          9.222096
       Cell parameter : b (A) =       9.218191          9.221287
       Cell parameter : c (A) =       9.221142          9.223377
       Cell angle : alpha (o) =      94.736377         94.742955
       Cell angle : beta  (o) =      94.745366         94.748757
       Cell angle : gamma (o) =      94.728393         94.734929
       Cell volume :   (A**3) =     775.208377        775.822144
  ** Time :            0.29000 ps :
     Properties:                   Instantaneous       Averaged
       Kinetic energy    (eV) =       1.358460          1.354849
       Potential energy  (eV) =   -1540.876240      -1540.634356
       Total energy      (eV) =   -1539.517780      -1539.279508
       Temperature       (K)  =     300.271645        299.473360
       C/S temperature   (K)  =       0.817854          0.733743
       Pressure         (GPa) =       0.864344          0.424131
       Cell parameter : a (A) =       9.220620          9.222070
       Cell parameter : b (A) =       9.218909          9.221246
       Cell parameter : c (A) =       9.221655          9.223348
       Cell angle : alpha (o) =      94.742082         94.742940
       Cell angle : beta  (o) =      94.750750         94.748791
       Cell angle : gamma (o) =      94.734528         94.734922
       Cell volume :   (A**3) =     775.351418        775.814028
  ** Time :            0.29500 ps :
     Properties:                   Instantaneous       Averaged
       Kinetic energy    (eV) =       1.359916          1.354935
       Potential energy  (eV) =   -1541.281248      -1540.645321
       Total energy      (eV) =   -1539.921333      -1539.290386
       Temperature       (K)  =     300.593308        299.492342
       C/S temperature   (K)  =       0.847242          0.735666
       Pressure         (GPa) =       0.501682          0.425374
       Cell parameter : a (A) =       9.221123          9.222054
       Cell parameter : b (A) =       9.219350          9.221214
       Cell parameter : c (A) =       9.222468          9.223333
       Cell angle : alpha (o) =      94.747076         94.743010
       Cell angle : beta  (o) =      94.758047         94.748948
       Cell angle : gamma (o) =      94.735641         94.734934
       Cell volume :   (A**3) =     775.482556        775.808410
  ** Time :            0.30000 ps :
     Properties:                   Instantaneous       Averaged
       Kinetic energy    (eV) =       1.354547          1.354928
       Potential energy  (eV) =   -1541.453808      -1540.658795
       Total energy      (eV) =   -1540.099261      -1539.303867
       Temperature       (K)  =     299.406742        299.490915
       C/S temperature   (K)  =       0.931409          0.738929
       Pressure         (GPa) =      -0.022838          0.417881
       Cell parameter : a (A) =       9.221078          9.222038
       Cell parameter : b (A) =       9.219304          9.221182
       Cell parameter : c (A) =       9.223064          9.223328
       Cell angle : alpha (o) =      94.747780         94.743089
       Cell angle : beta  (o) =      94.762049         94.749167
       Cell angle : gamma (o) =      94.730393         94.734859
       Cell volume :   (A**3) =     775.525765        775.803700
  ** Time :            0.30500 ps :
     Properties:                   Instantaneous       Averaged
       Kinetic energy    (eV) =       1.348832          1.354828
       Potential energy  (eV) =   -1540.917878      -1540.663043
       Total energy      (eV) =   -1539.569045      -1539.308214
       Temperature       (K)  =     298.143427        299.468825
       C/S temperature   (K)  =       0.886348          0.741345
       Pressure         (GPa) =      -0.428015          0.404036
       Cell parameter : a (A) =       9.220614          9.222015
       Cell parameter : b (A) =       9.218976          9.221146
       Cell parameter : c (A) =       9.223123          9.223325
       Cell angle : alpha (o) =      94.743318         94.743093
       Cell angle : beta  (o) =      94.759325         94.749333
       Cell angle : gamma (o) =      94.721316         94.734637
       Cell volume :   (A**3) =     775.484174        775.798461
  ** Time :            0.31000 ps :
     Properties:                   Instantaneous       Averaged
       Kinetic energy    (eV) =       1.355643          1.354841
       Potential energy  (eV) =   -1540.530648      -1540.660907
       Total energy      (eV) =   -1539.175006      -1539.306066
       Temperature       (K)  =     299.648845        299.471729
       C/S temperature   (K)  =       0.773156          0.741858
       Pressure         (GPa) =      -0.854287          0.383799
       Cell parameter : a (A) =       9.220027          9.221983
       Cell parameter : b (A) =       9.218541          9.221104
       Cell parameter : c (A) =       9.222472          9.223311
       Cell angle : alpha (o) =      94.737120         94.742997
       Cell angle : beta  (o) =      94.751024         94.749360
       Cell angle : gamma (o) =      94.714427         94.734311
       Cell volume :   (A**3) =     775.369692        775.791546
  ** Time :            0.31500 ps :
     Properties:                   Instantaneous       Averaged
       Kinetic energy    (eV) =       1.360727          1.354935
       Potential energy  (eV) =   -1540.917452      -1540.664979
       Total energy      (eV) =   -1539.556725      -1539.310045
       Temperature       (K)  =     300.772702        299.492379
       C/S temperature   (K)  =       0.805785          0.742873
       Pressure         (GPa) =      -1.180059          0.359068
       Cell parameter : a (A) =       9.219371          9.221941
       Cell parameter : b (A) =       9.217961          9.221054
       Cell parameter : c (A) =       9.221308          9.223279
       Cell angle : alpha (o) =      94.734467         94.742861
       Cell angle : beta  (o) =      94.743798         94.749272
       Cell angle : gamma (o) =      94.713834         94.733986
       Cell volume :   (A**3) =     775.180946        775.781854
  ** Time :            0.32000 ps :
     Properties:                   Instantaneous       Averaged
       Kinetic energy    (eV) =       1.358103          1.354984
       Potential energy  (eV) =   -1541.327716      -1540.675335
       Total energy      (eV) =   -1539.969612      -1539.320350
       Temperature       (K)  =     300.192755        299.503322
       C/S temperature   (K)  =       0.906373          0.745428
       Pressure         (GPa) =      -1.090966          0.336508
       Cell parameter : a (A) =       9.218663          9.221890
       Cell parameter : b (A) =       9.217262          9.220995
       Cell parameter : c (A) =       9.220252          9.223232
       Cell angle : alpha (o) =      94.736469         94.742761
       Cell angle : beta  (o) =      94.743038         94.749175
       Cell angle : gamma (o) =      94.717234         94.733724
       Cell volume :   (A**3) =     774.968127        775.769139
  ** Time :            0.32500 ps :
     Properties:                   Instantaneous       Averaged
       Kinetic energy    (eV) =       1.352731          1.354950
       Potential energy  (eV) =   -1541.215241      -1540.683641
       Total energy      (eV) =   -1539.862510      -1539.328691
       Temperature       (K)  =     299.005256        299.495660
       C/S temperature   (K)  =       0.912682          0.748001
       Pressure         (GPa) =      -0.665625          0.321160
       Cell parameter : a (A) =       9.218105          9.221832
       Cell parameter : b (A) =       9.216668          9.220928
       Cell parameter : c (A) =       9.219654          9.223177
       Cell angle : alpha (o) =      94.740347         94.742724
       Cell angle : beta  (o) =      94.747398         94.749147
       Cell angle : gamma (o) =      94.721693         94.733539
       Cell volume :   (A**3) =     774.805418        775.754313
  ** Time :            0.33000 ps :
     Properties:                   Instantaneous       Averaged
       Kinetic energy    (eV) =       1.354180          1.354938
       Potential energy  (eV) =   -1540.893185      -1540.686816
       Total energy      (eV) =   -1539.539006      -1539.331878
       Temperature       (K)  =     299.325434        299.493081
       C/S temperature   (K)  =       0.862337          0.749733
       Pressure         (GPa) =      -0.310270          0.311628
       Cell parameter : a (A) =       9.217822          9.221771
       Cell parameter : b (A) =       9.216400          9.220859
       Cell parameter : c (A) =       9.219373          9.223119
       Cell angle : alpha (o) =      94.742434         94.742720
       Cell angle : beta  (o) =      94.752191         94.749193
       Cell angle : gamma (o) =      94.726493         94.733432
       Cell volume :   (A**3) =     774.721109        775.738658
  ** Time :            0.33500 ps :
     Properties:                   Instantaneous       Averaged
       Kinetic energy    (eV) =       1.356989          1.354969
       Potential energy  (eV) =   -1540.924899      -1540.690369
       Total energy      (eV) =   -1539.567910      -1539.335401
       Temperature       (K)  =     299.946327        299.499846
       C/S temperature   (K)  =       0.834577          0.751000
       Pressure         (GPa) =      -0.275166          0.302889
       Cell parameter : a (A) =       9.217623          9.221709
       Cell parameter : b (A) =       9.216411          9.220793
       Cell parameter : c (A) =       9.218984          9.223058
       Cell angle : alpha (o) =      94.739731         94.742675
       Cell angle : beta  (o) =      94.752561         94.749244
       Cell angle : gamma (o) =      94.730258         94.733385
       Cell volume :   (A**3) =     774.670783        775.722720
  ** Time :            0.34000 ps :
     Properties:                   Instantaneous       Averaged
       Kinetic energy    (eV) =       1.357973          1.355013
       Potential energy  (eV) =   -1541.085201      -1540.696176
       Total energy      (eV) =   -1539.727227      -1539.341163
       Temperature       (K)  =     300.164024        299.509613
       C/S temperature   (K)  =       0.892808          0.753085
       Pressure         (GPa) =      -0.158694          0.296118
       Cell parameter : a (A) =       9.217399          9.221646
       Cell parameter : b (A) =       9.216576          9.220731
       Cell parameter : c (A) =       9.218367          9.222989
       Cell angle : alpha (o) =      94.733130         94.742535
       Cell angle : beta  (o) =      94.747535         94.749219
       Cell angle : gamma (o) =      94.731567         94.733358
       Cell volume :   (A**3) =     774.626819        775.706604
  ** Time :            0.34500 ps :
     Properties:                   Instantaneous       Averaged
       Kinetic energy    (eV) =       1.357048          1.355042
       Potential energy  (eV) =   -1541.236115      -1540.704001
       Total energy      (eV) =   -1539.879066      -1539.348959
       Temperature       (K)  =     299.959513        299.516133
       C/S temperature   (K)  =       0.949924          0.755938
       Pressure         (GPa) =       0.209692          0.294865
       Cell parameter : a (A) =       9.217400          9.221584
       Cell parameter : b (A) =       9.216919          9.220676
       Cell parameter : c (A) =       9.217856          9.222914
       Cell angle : alpha (o) =      94.727548         94.742318
       Cell angle : beta  (o) =      94.740631         94.749094
       Cell angle : gamma (o) =      94.731185         94.733326
       Cell volume :   (A**3) =     774.628641        775.690981
  ** Time :            0.35000 ps :
     Properties:                   Instantaneous       Averaged
       Kinetic energy    (eV) =       1.354034          1.355028
       Potential energy  (eV) =   -1541.111936      -1540.709828
       Total energy      (eV) =   -1539.757902      -1539.354801
       Temperature       (K)  =     299.293216        299.512949
       C/S temperature   (K)  =       0.931631          0.758448
       Pressure         (GPa) =       0.506499          0.297863
       Cell parameter : a (A) =       9.217743          9.221529
       Cell parameter : b (A) =       9.217378          9.220629
       Cell parameter : c (A) =       9.217789          9.222841
       Cell angle : alpha (o) =      94.726654         94.742094
       Cell angle : beta  (o) =      94.736563         94.748915
       Cell angle : gamma (o) =      94.730761         94.733290
       Cell volume :   (A**3) =     774.696982        775.676781
  ** Time :            0.35500 ps :
     Properties:                   Instantaneous       Averaged
       Kinetic energy    (eV) =       1.355087          1.355029
       Potential energy  (eV) =   -1540.936471      -1540.713021
       Total energy      (eV) =   -1539.581384      -1539.357992
       Temperature       (K)  =     299.526032        299.513133
       C/S temperature   (K)  =       0.864717          0.759944
       Pressure         (GPa) =       0.429318          0.299680
       Cell parameter : a (A) =       9.218158          9.221482
       Cell parameter : b (A) =       9.217716          9.220588
       Cell parameter : c (A) =       9.218166          9.222775
       Cell angle : alpha (o) =      94.729862         94.741922
       Cell angle : beta  (o) =      94.737008         94.748747
       Cell angle : gamma (o) =      94.730542         94.733251
       Cell volume :   (A**3) =     774.787784        775.664260
  ** Time :            0.36000 ps :
     Properties:                   Instantaneous       Averaged
       Kinetic energy    (eV) =       1.355993          1.355042
       Potential energy  (eV) =   -1540.909846      -1540.715754
       Total energy      (eV) =   -1539.553854      -1539.360712
       Temperature       (K)  =     299.726232        299.516093
       C/S temperature   (K)  =       0.891181          0.761767
       Pressure         (GPa) =       0.118135          0.297139
       Cell parameter : a (A) =       9.218291          9.221437
[...]
  ** Time :            0.90500 ps :
     Properties:                   Instantaneous       Averaged
       Kinetic energy    (eV) =       1.371297          1.360084
       Potential energy  (eV) =   -1530.759560      -1534.002847
       Total energy      (eV) =   -1529.388263      -1532.642764
       Temperature       (K)  =     303.109031        300.630435
       C/S temperature   (K)  =       0.444899          0.561536
       Pressure         (GPa) =      -1.255640          0.000842
       Cell parameter : a (A) =       9.469057          9.183423
       Cell parameter : b (A) =       8.910285          9.187062
       Cell parameter : c (A) =       9.389652          9.292749
       Cell angle : alpha (o) =      95.207054         94.852566
       Cell angle : beta  (o) =      93.295370         94.825369
       Cell angle : gamma (o) =      95.683204         95.448688
       Cell volume :   (A**3) =     783.308312        772.623877
  ** Time :            0.91000 ps :
     Properties:                   Instantaneous       Averaged
       Kinetic energy    (eV) =       1.326127          1.359897
       Potential energy  (eV) =   -1528.925333      -1533.974949
       Total energy      (eV) =   -1527.599206      -1532.615052
       Temperature       (K)  =     293.124786        300.589196
       C/S temperature   (K)  =       0.495626          0.561174
       Pressure         (GPa) =      -1.232814         -0.005938
       Cell parameter : a (A) =       9.637635          9.185918
       Cell parameter : b (A) =       8.865012          9.185293
       Cell parameter : c (A) =       9.303955          9.292810
       Cell angle : alpha (o) =      94.657807         94.851496
       Cell angle : beta  (o) =      93.783325         94.819644
       Cell angle : gamma (o) =      96.698325         95.455554
       Cell volume :   (A**3) =     784.586352        772.689605
  ** Time :            0.91500 ps :
     Properties:                   Instantaneous       Averaged
       Kinetic energy    (eV) =       1.291564          1.359524
       Potential energy  (eV) =   -1531.318017      -1533.960430
       Total energy      (eV) =   -1530.026454      -1532.600907
       Temperature       (K)  =     285.484914        300.506659
       C/S temperature   (K)  =       0.510293          0.560896
       Pressure         (GPa) =      -0.482950         -0.008617
       Cell parameter : a (A) =       9.645941          9.188432
       Cell parameter : b (A) =       8.833583          9.183371
       Cell parameter : c (A) =       9.245766          9.292553
       Cell angle : alpha (o) =      94.512873         94.849646
       Cell angle : beta  (o) =      94.912271         94.820150
       Cell angle : gamma (o) =      97.472508         95.466576
       Cell volume :   (A**3) =     775.031963        772.702405
  ** Time :            0.92000 ps :
     Properties:                   Instantaneous       Averaged
       Kinetic energy    (eV) =       1.312966          1.359271
       Potential energy  (eV) =   -1535.713599      -1533.969958
       Total energy      (eV) =   -1534.400633      -1532.610688
       Temperature       (K)  =     290.215688        300.450729
       C/S temperature   (K)  =       0.614619          0.561188
       Pressure         (GPa) =       0.694369         -0.004948
       Cell parameter : a (A) =       9.498653          9.190118
       Cell parameter : b (A) =       8.819447          9.181393
       Cell parameter : c (A) =       9.261276          9.292383
       Cell angle : alpha (o) =      94.590183         94.848236
       Cell angle : beta  (o) =      96.133196         94.827286
       Cell angle : gamma (o) =      97.362873         95.476882
       Cell volume :   (A**3) =     761.579000        772.641952
  ** Time :            0.92500 ps :
     Properties:                   Instantaneous       Averaged
       Kinetic energy    (eV) =       1.407355          1.359530
       Potential energy  (eV) =   -1538.158675      -1533.992600
       Total energy      (eV) =   -1536.751320      -1532.633069
       Temperature       (K)  =     311.079265        300.508181
       C/S temperature   (K)  =       0.550900          0.561133
       Pressure         (GPa) =       1.676964          0.004096
       Cell parameter : a (A) =       9.274441          9.190574
       Cell parameter : b (A) =       8.863803          9.179677
       Cell parameter : c (A) =       9.338814          9.292634
       Cell angle : alpha (o) =      94.536107         94.846549
       Cell angle : beta  (o) =      96.796447         94.837930
       Cell angle : gamma (o) =      96.401300         95.481879
       Cell volume :   (A**3) =     754.246651        772.542518
  ** Time :            0.93000 ps :
     Properties:                   Instantaneous       Averaged
       Kinetic energy    (eV) =       1.413978          1.359823
       Potential energy  (eV) =   -1537.369086      -1534.010753
       Total energy      (eV) =   -1535.955108      -1532.650930
       Temperature       (K)  =     312.543086        300.572885
       C/S temperature   (K)  =       0.501986          0.560815
       Pressure         (GPa) =       1.054754          0.009713
       Cell parameter : a (A) =       9.078721          9.189972
       Cell parameter : b (A) =       9.020555          9.178821
       Cell parameter : c (A) =       9.418050          9.293308
       Cell angle : alpha (o) =      94.099400         94.842532
       Cell angle : beta  (o) =      96.588195         94.847340
       Cell angle : gamma (o) =      95.420654         95.481550
       Cell volume :   (A**3) =     760.124936        772.475756
  ** Time :            0.93500 ps :
     Properties:                   Instantaneous       Averaged
       Kinetic energy    (eV) =       1.390311          1.359986
       Potential energy  (eV) =   -1534.024193      -1534.010825
       Total energy      (eV) =   -1532.633882      -1532.650839
       Temperature       (K)  =     307.311941        300.608922
       C/S temperature   (K)  =       0.461538          0.560284
       Pressure         (GPa) =      -0.561339          0.006479
       Cell parameter : a (A) =       8.957398          9.188729
       Cell parameter : b (A) =       9.273401          9.179327
       Cell parameter : c (A) =       9.435825          9.294070
       Cell angle : alpha (o) =      93.525050         94.835486
       Cell angle : beta  (o) =      95.783712         94.852347
       Cell angle : gamma (o) =      95.230894         95.480209
       Cell volume :   (A**3) =     774.576275        772.486989
  ** Time :            0.94000 ps :
     Properties:                   Instantaneous       Averaged
       Kinetic energy    (eV) =       1.362538          1.360000
       Potential energy  (eV) =   -1530.196266      -1533.990535
       Total energy      (eV) =   -1528.833728      -1532.630535
       Temperature       (K)  =     301.172936        300.611922
       C/S temperature   (K)  =       0.449126          0.559692
       Pressure         (GPa) =      -1.410280         -0.001141
       Cell parameter : a (A) =       8.890313          9.187141
       Cell parameter : b (A) =       9.521635          9.181148
       Cell parameter : c (A) =       9.377456          9.294514
       Cell angle : alpha (o) =      93.389648         94.827796
       Cell angle : beta  (o) =      94.960528         94.852923
       Cell angle : gamma (o) =      95.913530         95.482514
       Cell volume :   (A**3) =     784.766886        772.552308
  ** Time :            0.94500 ps :
     Properties:                   Instantaneous       Averaged
       Kinetic energy    (eV) =       1.316002          1.359767
       Potential energy  (eV) =   -1529.349223      -1533.965978
       Total energy      (eV) =   -1528.033221      -1532.606211
       Temperature       (K)  =     290.886667        300.560466
       C/S temperature   (K)  =       0.501374          0.559384
       Pressure         (GPa) =      -1.130211         -0.007118
       Cell parameter : a (A) =       8.847727          9.185346
       Cell parameter : b (A) =       9.656027          9.183660
       Cell parameter : c (A) =       9.289312          9.294486
       Cell angle : alpha (o) =      94.015389         94.823497
       Cell angle : beta  (o) =      94.498617         94.851048
       Cell angle : gamma (o) =      96.941222         95.490232
       Cell volume :   (A**3) =     782.839748        772.606739
  ** Time :            0.95000 ps :
     Properties:                   Instantaneous       Averaged
       Kinetic energy    (eV) =       1.290825          1.359404
       Potential energy  (eV) =   -1532.524742      -1533.958392
       Total energy      (eV) =   -1531.233917      -1532.598988
       Temperature       (K)  =     285.321553        300.480261
       C/S temperature   (K)  =       0.511448          0.559132
       Pressure         (GPa) =      -0.174535         -0.008107
       Cell parameter : a (A) =       8.816958          9.183407
       Cell parameter : b (A) =       9.624014          9.185978
       Cell parameter : c (A) =       9.241745          9.294209
       Cell angle : alpha (o) =      95.194855         94.825452
       Cell angle : beta  (o) =      94.428238         94.848823
       Cell angle : gamma (o) =      97.545397         95.501049
       Cell volume :   (A**3) =     771.061036        772.598603
  ** Time :            0.95500 ps :
     Properties:                   Instantaneous       Averaged
       Kinetic energy    (eV) =       1.327185          1.359235
       Potential energy  (eV) =   -1536.732744      -1533.972917
       Total energy      (eV) =   -1535.405560      -1532.613682
       Temperature       (K)  =     293.358516        300.442975
       C/S temperature   (K)  =       0.614844          0.559423
       Pressure         (GPa) =       1.068320         -0.002609
       Cell parameter : a (A) =       8.812183          9.181463
       Cell parameter : b (A) =       9.450953          9.187365
       Cell parameter : c (A) =       9.272324          9.294094
       Cell angle : alpha (o) =      96.329679         94.833327
       Cell angle : beta  (o) =      94.514727         94.847074
       Cell angle : gamma (o) =      97.198960         95.509938
       Cell volume :   (A**3) =     758.113860        772.522767
  ** Time :            0.96000 ps :
     Properties:                   Instantaneous       Averaged
       Kinetic energy    (eV) =       1.428271          1.359595
       Potential energy  (eV) =   -1538.338074      -1533.995653
       Total energy      (eV) =   -1536.909803      -1532.636058
       Temperature       (K)  =     315.702409        300.522451
       C/S temperature   (K)  =       0.535110          0.559297
       Pressure         (GPa) =       1.705831          0.006276
       Cell parameter : a (A) =       8.883007          9.179909
       Cell parameter : b (A) =       9.228548          9.187580
       Cell parameter : c (A) =       9.356757          9.294421
       Cell angle : alpha (o) =      96.812275         94.843634
       Cell angle : beta  (o) =      94.395613         94.844722
       Cell angle : gamma (o) =      96.144897         95.513246
       Cell volume :   (A**3) =     754.142912        772.427039
  ** Time :            0.96500 ps :
     Properties:                   Instantaneous       Averaged
       Kinetic energy    (eV) =       1.406206          1.359837
       Potential energy  (eV) =   -1536.805097      -1534.010209
       Total energy      (eV) =   -1535.398891      -1532.650373
       Temperature       (K)  =     310.825188        300.575833
       C/S temperature   (K)  =       0.505120          0.559016
       Pressure         (GPa) =       0.607108          0.009312
       Cell parameter : a (A) =       9.071160          9.179345
       Cell parameter : b (A) =       9.052420          9.186879
       Cell parameter : c (A) =       9.427234          9.295109
       Cell angle : alpha (o) =      96.452936         94.851973
       Cell angle : beta  (o) =      93.913330         94.839897
       Cell angle : gamma (o) =      95.304159         95.512162
       Cell volume :   (A**3) =     763.505104        772.380811
  ** Time :            0.97000 ps :
     Properties:                   Instantaneous       Averaged
       Kinetic energy    (eV) =       1.386045          1.359972
       Potential energy  (eV) =   -1532.999041      -1534.004997
       Total energy      (eV) =   -1531.612997      -1532.645026
       Temperature       (K)  =     306.368821        300.605694
       C/S temperature   (K)  =       0.459634          0.558504
       Pressure         (GPa) =      -0.922722          0.004335
       Cell parameter : a (A) =       9.333821          9.180141
       Cell parameter : b (A) =       8.946888          9.185642
       Cell parameter : c (A) =       9.426144          9.295784
       Cell angle : alpha (o) =      95.635552         94.856012
       Cell angle : beta  (o) =      93.432857         94.832644
       Cell angle : gamma (o) =      95.340312         95.511276
       Cell volume :   (A**3) =     778.065298        772.410112
  ** Time :            0.97500 ps :
     Properties:                   Instantaneous       Averaged
       Kinetic energy    (eV) =       1.352548          1.359934
       Potential energy  (eV) =   -1529.527808      -1533.982037
       Total energy      (eV) =   -1528.175261      -1532.622104
       Temperature       (K)  =     298.964709        300.597278
       C/S temperature   (K)  =       0.462761          0.558013
       Pressure         (GPa) =      -1.397898         -0.002896
       Cell parameter : a (A) =       9.560710          9.182093
       Cell parameter : b (A) =       8.885793          9.184105
       Cell parameter : c (A) =       9.354526          9.296085
       Cell angle : alpha (o) =      94.914744         94.856313
       Cell angle : beta  (o) =      93.506211         94.825842
       Cell angle : gamma (o) =      96.161155         95.514609
       Cell volume :   (A**3) =     785.225848        772.475834
  ** Time :            0.98000 ps :
     Properties:                   Instantaneous       Averaged
       Kinetic energy    (eV) =       1.305565          1.359656
       Potential energy  (eV) =   -1529.694355      -1533.960161
       Total energy      (eV) =   -1528.388790      -1532.600505
       Temperature       (K)  =     288.579765        300.535965
       C/S temperature   (K)  =       0.504985          0.557742
       Pressure         (GPa) =      -0.876366         -0.007371
       Cell parameter : a (A) =       9.655170          9.184507
       Cell parameter : b (A) =       8.845263          9.182376
       Cell parameter : c (A) =       9.271452          9.295960
       Cell angle : alpha (o) =      94.577009         94.854888
       Cell angle : beta  (o) =      94.320432         94.823263
       Cell angle : gamma (o) =      97.147972         95.522943
       Cell volume :   (A**3) =     780.230577        772.515399
  ** Time :            0.98500 ps :
     Properties:                   Instantaneous       Averaged
       Kinetic energy    (eV) =       1.292846          1.359317
       Potential energy  (eV) =   -1533.516489      -1533.957909
       Total energy      (eV) =   -1532.223643      -1532.598592
       Temperature       (K)  =     285.768461        300.461003
       C/S temperature   (K)  =       0.564798          0.557778
       Pressure         (GPa) =       0.121946         -0.006835
       Cell parameter : a (A) =       9.584557          9.186537
       Cell parameter : b (A) =       8.818955          9.180531
       Cell parameter : c (A) =       9.244695          9.295700
       Cell angle : alpha (o) =      94.578150         94.853483
       Cell angle : beta  (o) =      95.541254         94.826908
       Cell angle : gamma (o) =      97.542246         95.533193
       Cell volume :   (A**3) =     767.639547        772.490649
  ** Time :            0.99000 ps :
     Properties:                   Instantaneous       Averaged
       Kinetic energy    (eV) =       1.348725          1.359264
       Potential energy  (eV) =   -1537.391778      -1533.975252
       Total energy      (eV) =   -1536.043053      -1532.615988
       Temperature       (K)  =     298.119834        300.449179
       C/S temperature   (K)  =       0.614084          0.558062
       Pressure         (GPa) =       1.261705         -0.000529
       Cell parameter : a (A) =       9.390891          9.187570
       Cell parameter : b (A) =       8.827549          9.178748
       Cell parameter : c (A) =       9.295608          9.295699
       Cell angle : alpha (o) =      94.642329         94.852417
       Cell angle : beta  (o) =      96.533623         94.835527
       Cell angle : gamma (o) =      96.966086         95.540430
       Cell volume :   (A**3) =     756.421556        772.409492
  ** Time :            0.99500 ps :
     Properties:                   Instantaneous       Averaged
       Kinetic energy    (eV) =       1.434675          1.359642
       Potential energy  (eV) =   -1538.234912      -1533.996657
       Total energy      (eV) =   -1536.800237      -1532.637015
       Temperature       (K)  =     317.117983        300.532941
       C/S temperature   (K)  =       0.517266          0.557857
       Pressure         (GPa) =       1.531723          0.007171
       Cell parameter : a (A) =       9.172346          9.187493
       Cell parameter : b (A) =       8.923298          9.177465
       Cell parameter : c (A) =       9.383718          9.296141
       Cell angle : alpha (o) =      94.421362         94.850251
       Cell angle : beta  (o) =      96.771375         94.845255
       Cell angle : gamma (o) =      95.878814         95.542130
       Cell volume :   (A**3) =     755.568733        772.324865
  ** Time :            1.00000 ps :
     Properties:                   Instantaneous       Averaged
       Kinetic energy    (eV) =       1.399846          1.359843
       Potential energy  (eV) =   -1536.088490      -1534.007116
       Total energy      (eV) =   -1534.688644      -1532.647273
       Temperature       (K)  =     309.419400        300.577374
       C/S temperature   (K)  =       0.480303          0.557470
       Pressure         (GPa) =       0.225753          0.008160
       Cell parameter : a (A) =       9.011912          9.186615
       Cell parameter : b (A) =       9.133333          9.177244
       Cell parameter : c (A) =       9.438593          9.296854
       Cell angle : alpha (o) =      93.871620         94.845358
       Cell angle : beta  (o) =      96.222247         94.852140
       Cell angle : gamma (o) =      95.230395         95.540571
       Cell volume :   (A**3) =     766.732512        772.296903

  Peak dynamic memory used =       0.67 MB 


  Timing analysis for GULP :

--------------------------------------------------------------------------------
  Task / Subroutine                                          Time (Seconds)
--------------------------------------------------------------------------------
  Calculation of reciprocal space energy and derivatives         18.0366
  Calculation of real space energy and derivatives              386.8977
  Calculation of three-body energy and derivatives                0.3540
  Symmetry generation of equivalent positions                     0.0012
  Global summation overhead                                       0.0500
--------------------------------------------------------------------------------
  Total CPU time                                                407.6230
--------------------------------------------------------------------------------


  Dump file written as example19.grs                                           


  Job Finished at 09:19.24 29th July       2013                               

