********************************************************************************
*                       GENERAL UTILITY LATTICE PROGRAM                        *
*                                 Julian Gale                                  *
*                      Nanochemistry Research Institute                        *
*                           Department of Chemistry                            *
*                    Curtin University, Western Australia                      *
********************************************************************************
* Version = 4.1.0 * Last modified =   7th July 2013                            *
********************************************************************************
*  optimise     - perform optimisation run                                     *
*  conv         - constant volume calculation                                  *
*  cosmic       - use COSMIC solvation energy (integral charges)               *
*  molecule     - molecule option activated, Coulomb subtract within molecule  *
********************************************************************************

  Job Started  at 17:24.07 28th July       2013                               

  Number of CPUs =     1

  Host name      = M-A0002884.local                        


  Total number of configurations input =   1

********************************************************************************
*  Input for Configuration =   1                                               *
********************************************************************************

  Formula = H16N8C4O4                                                   

  Number of irreducible atoms/shells =      32


  Total number atoms/shells =      32

  Dimensionality = 2               :  Surface


  Solvated with COSMIC model : 

  Dielectric constant        =    78.400000
  Solvent radius             =     1.000000 Angstroms
  Delta solvent radius       =     0.100000 Angstroms
  Cutoff : point to segment  =    10.000000 Angstroms
  Smooth : point to segment  =     1.000000 Angstroms
  Smooth : point inclusion   =     0.100000 Angstroms
  Coulomb: Wolf sum eta      =     0.050000 Angstroms-1
  Coulomb: Wolf sum cutoff   =    20.000000 Angstroms
  No. of points per sphere   =          110
  No. of segments per sphere =          110
  For generation of SAS use  = cores only
  Shape of atomic mesh       = Octahedron


  Surface Cartesian vectors (Angstroms) :

        5.551816    0.000000    0.000000
        0.000000    5.551816    0.000000

  Surface cell parameters (Angstroms/Degrees):

  a =       5.5518    alpha =  90.0000
  b =       5.5518

  Initial surface area   =     30.822661 Angs**2

  Initial surface dipole =     -0.023336 e.Angs

  Temperature of configuration =  0.000     K 

  Mixed fractional/Cartesian coordinates of surface :

--------------------------------------------------------------------------------
   No.  Atomic       x           y          z         Charge      Occupancy
        Label      (Frac)      (Frac)     (Angs)        (e)         (Frac)  
--------------------------------------------------------------------------------
  Region 1 : 
--------------------------------------------------------------------------------
      1 H     c    0.358756 *  0.141245 *   -0.0945 *   0.41500    1.000000    
      2 H     c    0.641245 *  0.858756 *   -0.0945 *   0.41500    1.000000    
      3 N     c    0.356344 *  0.143657 *   -1.1173 *  -0.83000    1.000000    
      4 N     c    0.643657 *  0.856344 *   -1.1173 *  -0.83000    1.000000    
      5 H     c    0.237947 *  0.262053 *   -1.5872 *   0.41500    1.000000    
      6 H     c    0.762053 *  0.737947 *   -1.5872 *   0.41500    1.000000    
      7 C     c    0.500000 *  0.000000 *   -1.7958 *   0.38000    1.000000    
      8 O     c    0.000000 *  0.500000 *   -1.9183 *  -0.38000    1.000000    
      9 O     c    0.500000 *  0.000000 *   -3.0267 *  -0.38000    1.000000    
     10 C     c    0.000000 *  0.500000 *   -3.1505 *   0.38000    1.000000    
     11 H     c    0.738673 *  0.238673 *   -3.3782 *   0.41500    1.000000    
     12 H     c    0.261327 *  0.761327 *   -3.3782 *   0.41500    1.000000    
     13 N     c    0.857157 *  0.357157 *   -3.8332 *  -0.83000    1.000000    
     14 N     c    0.142843 *  0.642843 *   -3.8332 *  -0.83000    1.000000    
     15 H     c    0.862108 *  0.362108 *   -4.8686 *   0.41500    1.000000    
     16 H     c    0.137892 *  0.637892 *   -4.8686 *   0.41500    1.000000    
--------------------------------------------------------------------------------
  Region 2 :  Rigid translation fixed in xyz
--------------------------------------------------------------------------------
     17 H     c    0.362160    0.137840     -4.7886     0.41500    1.000000    
     18 H     c    0.637840    0.862160     -4.7886     0.41500    1.000000    
     19 N     c    0.357088    0.142911     -5.8243    -0.83000    1.000000    
     20 N     c    0.642911    0.857088     -5.8243    -0.83000    1.000000    
     21 H     c    0.238365    0.261635     -6.2765     0.41500    1.000000    
     22 H     c    0.761635    0.738365     -6.2765     0.41500    1.000000    
     23 C     c    0.500000    0.000000     -6.5051     0.38000    1.000000    
     24 O     c    0.000000    0.500000     -6.6313    -0.38000    1.000000    
     25 O     c    0.500000    0.000000     -7.7362    -0.38000    1.000000    
     26 C     c    0.000000    0.500000     -7.8623     0.38000    1.000000    
     27 H     c    0.738365    0.238365     -8.0910     0.41500    1.000000    
     28 H     c    0.261635    0.761635     -8.0910     0.41500    1.000000    
     29 N     c    0.857088    0.357088     -8.5432    -0.83000    1.000000    
     30 N     c    0.142911    0.642911     -8.5432    -0.83000    1.000000    
     31 H     c    0.862160    0.362160     -9.5789     0.41500    1.000000    
     32 H     c    0.137840    0.637840     -9.5789     0.41500    1.000000    
--------------------------------------------------------------------------------



  Growth Slice : 

  Number of formula units in slice =    2

  Mixed fractional/Cartesian coordinates

--------------------------------------------------------------------------------
   No.  Atomic       x           y          z         Charge      Occupancy
        Label      (Frac)      (Frac)     (Angs)        (e)         (Frac)  
--------------------------------------------------------------------------------
      1 H     c    0.358756    0.141245     -0.0945      0.4150    1.000000
      2 H     c    0.641245    0.858756     -0.0945      0.4150    1.000000
      3 N     c    0.356344    0.143657     -1.1173     -0.8300    1.000000
      4 N     c    0.643657    0.856344     -1.1173     -0.8300    1.000000
      5 H     c    0.237947    0.262053     -1.5872      0.4150    1.000000
      6 H     c    0.762053    0.737947     -1.5872      0.4150    1.000000
      7 C     c    0.500000    0.000000     -1.7958      0.3800    1.000000
      8 O     c    0.000000    0.500000     -1.9183     -0.3800    1.000000
      9 O     c    0.500000    0.000000     -3.0267     -0.3800    1.000000
     10 C     c    0.000000    0.500000     -3.1505      0.3800    1.000000
     11 H     c    0.738673    0.238673     -3.3782      0.4150    1.000000
     12 H     c    0.261327    0.761327     -3.3782      0.4150    1.000000
     13 N     c    0.857157    0.357157     -3.8332     -0.8300    1.000000
     14 N     c    0.142843    0.642843     -3.8332     -0.8300    1.000000
     15 H     c    0.862108    0.362108     -4.8686      0.4150    1.000000
     16 H     c    0.137892    0.637892     -4.8686      0.4150    1.000000
--------------------------------------------------------------------------------



  Molecule list generated from bond lengths :

  Total number of molecules =     4

--------------------------------------------------------------------------------
Molecule No./:  Atoms
Periodicity  :  
--------------------------------------------------------------------------------
     1  0    : H    c     1 H    c     2 N    c     3 N    c     4 H    c     5
             : H    c     6 C    c     7 O    c     9
     2  0    : O    c     8 C    c    10 H    c    11 H    c    12 N    c    13
             : N    c    14 H    c    15 H    c    16
     3  0    : H    c    17 H    c    18 N    c    19 N    c    20 H    c    21
             : H    c    22 C    c    23 O    c    25
     4  0    : O    c    24 C    c    26 H    c    27 H    c    28 N    c    29
             : N    c    30 H    c    31 H    c    32
--------------------------------------------------------------------------------


********************************************************************************
*  General input information                                                   *
********************************************************************************

  Species output for all configurations : 

--------------------------------------------------------------------------------
  Species    Type    Atomic    Atomic    Charge       Radii (Angs)     Library
                     Number     Mass       (e)     Cova   Ionic  VDW   Symbol
--------------------------------------------------------------------------------
    C        Core        6      12.01   0.380000   0.870  0.000  1.530          
    O        Core        8      16.00  -0.380000   0.730  0.000  1.360          
    N        Core        7      14.01  -0.830000   0.750  0.000  1.480          
    H        Core        1       1.01   0.415000   0.330  0.000  1.080          
--------------------------------------------------------------------------------


  Lattice summation method               =    Ewald          (3-D)
                                         =    Parry          (2-D)
                                         =    Saunders et al (1-D)
  Accuracy factor for lattice sums       =   12.000


  Time limit = Infinity

  Maximum range for interatomic potentials =    100000.000000 Angstroms

  Intramolecular potentials :

--------------------------------------------------------------------------------
Atom  Types   Potential         A         B         C         D     Cutoffs(Ang)
  1     2                                                            Min    Max 
--------------------------------------------------------------------------------
C    c O    c Morse          6.29      2.06      1.23      0.00     0.000 1 Bond
C    c N    c Morse          4.21      2.00      1.32      0.00     0.000 1 Bond
H    c N    c Morse          3.82      2.28      1.03      0.00     0.000 1 Bond
--------------------------------------------------------------------------------

  Intermolecular potentials :

--------------------------------------------------------------------------------
Atom  Types   Potential         A         B         C         D     Cutoffs(Ang)
  1     2                                                            Min    Max 
--------------------------------------------------------------------------------
C    c O    c Lennard 12  6 0.390E+05  35.3      0.00      0.00     0.000 18.000
C    c N    c Lennard 12  6 0.112E+06  55.4      0.00      0.00     0.000 18.000
O    c O    c Lennard 12  6 0.118E+05  21.6      0.00      0.00     0.000 18.000
N    c O    c Lennard 12  6 0.341E+05  34.0      0.00      0.00     0.000 18.000
N    c N    c Lennard 12  6 0.983E+05  53.4      0.00      0.00     0.000 18.000
C    c C    c Lennard 12  6 0.129E+06  57.5      0.00      0.00     0.000 18.000
--------------------------------------------------------------------------------

  Intramolecular Three-body potentials :

  Harmonic form:

--------------------------------------------------------------------------------
Atom    Atom    Atom           Force Constants            Theta     Cutoffs  
  1       2       3     (eVrad**-2/eVrad**-3/eVrad**-4)   (deg)  1-2  1-3  2-3
--------------------------------------------------------------------------------
C     c N     c O     c  5.897        0.0000    0.0000   121.000     Bonded
N     c H     c C     c  3.252        0.0000    0.0000   120.000     Bonded
N     c H     c H     c  2.862        0.0000    0.0000   120.000     Bonded
C     c N     c N     c  8.846        0.0000    0.0000   118.000     Bonded
--------------------------------------------------------------------------------

  General Four-body potentials :

  Standard form:

--------------------------------------------------------------------------------
         Atom Types             Force cst Sign Phase Phi0         Cutoffs
   1       2       3       4       (eV)                     1-2  2-3  3-4  4-1
--------------------------------------------------------------------------------
O     c C     c N     c N     c  0.4340     -   2     0.00  1.60 1.60 3.00 0.00
--------------------------------------------------------------------------------

  Intramolecular Four-body potentials :

  Standard form:

--------------------------------------------------------------------------------
         Atom Types             Force cst Sign Phase Phi0         Cutoffs
   1       2       3       4       (eV)                     1-2  2-3  3-4  4-1
--------------------------------------------------------------------------------
O     c C     c N     c H     c  0.2602     -   2     0.00  Bonded              
N     c C     c N     c H     c  0.2170E-02 -   2     0.00  Bonded              
--------------------------------------------------------------------------------

********************************************************************************
*  Output for configuration   1                                                *
********************************************************************************


  Components of energy : 

--------------------------------------------------------------------------------
  Interatomic potentials     =         -60.14236200 eV
  Three-body potentials      =           0.01952584 eV
  Four-body potentials       =           0.00000000 eV
  Improper torsions          =           0.00000000 eV
  Out of plane potentials    =           0.00000000 eV
  Monopole - monopole (real) =          11.00689551 eV
  Monopole - monopole (recip)=         -11.93872995 eV
  Monopole - monopole (total)=          -0.93183444 eV
  Solvation energy           =          -0.08377879 eV
  Region 1-2 interaction     =          -0.99731787 eV
  Region 2-2 interaction     =         -61.04251008 eV
--------------------------------------------------------------------------------
  Total lattice energy       =        -123.17827735 eV
--------------------------------------------------------------------------------
  Total lattice energy       =          -11884.8208 kJ/(mole unit cells)
--------------------------------------------------------------------------------
  Bulk energy                =           -62.072323 eV    
  Surface energy (region 1)  =             0.226229 J/m**2
--------------------------------------------------------------------------------
  Attachment energy          =          -0.99731787 eV
  Attachment energy/unit     =          -0.49865893 eV
--------------------------------------------------------------------------------


  Number of variables =       48

  Maximum number of calculations  =          1000
  Maximum Hessian update interval =            10
  Maximum step size               =   1.000000000
  Maximum parameter tolerance     =   0.000010000
  Maximum function  tolerance     =   0.000010000
  Maximum gradient  tolerance     =   0.001000000
  Maximum gradient  component     =   0.010000000

  Symmetry not applied to optimisation

  Newton-Raphson optimiser to be used

  BFGS hessian update to be used

  Dumpfile to be written after every cycle

  Start of surface optimisation :

  Cycle:      0 Energy:      -123.178277  Gnorm:      0.015753  CPU:    0.941
  ** Hessian calculated **
  Cycle:      1 Energy:      -123.179779  Gnorm:      0.000697  CPU:    1.368


  **** Optimisation achieved ****


  Final energy =    -123.17978360 eV
  Final Gnorm  =       0.00012723

  Components of energy : 

--------------------------------------------------------------------------------
  Interatomic potentials     =         -60.14326033 eV
  Three-body potentials      =           0.02069056 eV
  Four-body potentials       =           0.00000002 eV
  Improper torsions          =           0.00000000 eV
  Out of plane potentials    =           0.00000000 eV
  Monopole - monopole (real) =          11.00608124 eV
  Monopole - monopole (recip)=         -11.93696658 eV
  Monopole - monopole (total)=          -0.93088535 eV
  Solvation energy           =          -0.08651864 eV
  Region 1-2 interaction     =          -0.99729979 eV
  Region 2-2 interaction     =         -61.04251008 eV
--------------------------------------------------------------------------------
  Total lattice energy       =        -123.17978360 eV
--------------------------------------------------------------------------------
  Total lattice energy       =          -11884.9661 kJ/(mole unit cells)
--------------------------------------------------------------------------------
  Bulk energy                =           -62.072323 eV    
  Surface energy (region 1)  =             0.225441 J/m**2
--------------------------------------------------------------------------------
  Attachment energy          =          -0.99729979 eV
  Attachment energy/unit     =          -0.49864989 eV
--------------------------------------------------------------------------------

  Final fractional/Cartesian coordinates of atoms :

--------------------------------------------------------------------------------
   No.  Atomic        x           y          z          Radius
        Label       (Frac)      (Frac)     (Angs)       (Angs) 
--------------------------------------------------------------------------------
     1  H     c     0.360606    0.139474   -0.093540    0.000000
     2  H     c     0.639400    0.860530   -0.093545    0.000000
     3  N     c     0.356981    0.143066   -1.119384    0.000000
     4  N     c     0.643023    0.856936   -1.119389    0.000000
     5  H     c     0.238330    0.261743   -1.583068    0.000000
     6  H     c     0.761672    0.738259   -1.583077    0.000000
     7  C     c     0.500001    0.000001   -1.800279    0.000000
     8  O     c     0.000000    0.499999   -1.915278    0.000000
     9  O     c     0.500000    0.000000   -3.031148    0.000000
    10  C     c     0.000000    0.500000   -3.147649    0.000000
    11  H     c     0.738613    0.238612   -3.376942    0.000000
    12  H     c     0.261388    0.761388   -3.376936    0.000000
    13  N     c     0.857182    0.357183   -3.830668    0.000000
    14  N     c     0.142818    0.642817   -3.830665    0.000000
    15  H     c     0.862212    0.362212   -4.866069    0.000000
    16  H     c     0.137789    0.637788   -4.866066    0.000000
    17  H     c     0.362160    0.137840   -4.788570    0.000000
    18  H     c     0.637840    0.862160   -4.788570    0.000000
    19  N     c     0.357088    0.142911   -5.824303    0.000000
    20  N     c     0.642911    0.857088   -5.824303    0.000000
    21  H     c     0.238365    0.261635   -6.276516    0.000000
    22  H     c     0.761635    0.738365   -6.276516    0.000000
    23  C     c     0.500000    0.000000   -6.505131    0.000000
    24  O     c     0.000000    0.500000   -6.631274    0.000000
    25  O     c     0.500000    0.000000   -7.736193    0.000000
    26  C     c     0.000000    0.500000   -7.862336    0.000000
    27  H     c     0.738365    0.238365   -8.090951    0.000000
    28  H     c     0.261635    0.761635   -8.090951    0.000000
    29  N     c     0.857088    0.357088   -8.543163    0.000000
    30  N     c     0.142911    0.642911   -8.543163    0.000000
    31  H     c     0.862160    0.362160   -9.578897    0.000000
    32  H     c     0.137840    0.637840   -9.578897    0.000000
--------------------------------------------------------------------------------

  Final internal/Cartesian derivatives :

--------------------------------------------------------------------------------
   No.  Atomic          a             b             z           Radius
        Label          (eV)          (eV)       (eV/Angs)      (eV/Angs)
--------------------------------------------------------------------------------
      1 H     c       0.000804     -0.000779      0.000338      0.000000
      2 H     c      -0.000806      0.000777      0.000338      0.000000
      3 N     c      -0.003227      0.002145      0.000515      0.000000
      4 N     c       0.003106     -0.002200      0.000511      0.000000
      5 H     c       0.000367     -0.000370      0.000085      0.000000
      6 H     c      -0.000369      0.000370      0.000085      0.000000
      7 C     c       0.000000      0.000000      0.000129      0.000000
      8 O     c       0.000125      0.000057     -0.001978      0.000000
      9 O     c      -0.000000     -0.000000     -0.000042      0.000000
     10 C     c      -0.000001     -0.000001      0.000019      0.000000
     11 H     c      -0.000031     -0.000031      0.000035      0.000000
     12 H     c       0.000031      0.000031      0.000034      0.000000
     13 N     c       0.000033      0.000034     -0.000061      0.000000
     14 N     c      -0.000032     -0.000033     -0.000060      0.000000
     15 H     c      -0.000005     -0.000005      0.000039      0.000000
     16 H     c       0.000005      0.000005      0.000039      0.000000
     17 H     c       0.000000      0.000000      0.000000      0.000000
     18 H     c       0.000000      0.000000      0.000000      0.000000
     19 N     c       0.000000      0.000000      0.000000      0.000000
     20 N     c       0.000000      0.000000      0.000000      0.000000
     21 H     c       0.000000      0.000000      0.000000      0.000000
     22 H     c       0.000000      0.000000      0.000000      0.000000
     23 C     c       0.000000      0.000000      0.000000      0.000000
     24 O     c       0.000000      0.000000      0.000000      0.000000
     25 O     c       0.000000      0.000000      0.000000      0.000000
     26 C     c       0.000000      0.000000      0.000000      0.000000
     27 H     c       0.000000      0.000000      0.000000      0.000000
     28 H     c       0.000000      0.000000      0.000000      0.000000
     29 N     c       0.000000      0.000000      0.000000      0.000000
     30 N     c       0.000000      0.000000      0.000000      0.000000
     31 H     c       0.000000      0.000000      0.000000      0.000000
     32 H     c       0.000000      0.000000      0.000000      0.000000
--------------------------------------------------------------------------------
  Maximum abs         0.003227      0.002200      0.001978      0.000000
--------------------------------------------------------------------------------


  Time to end of optimisation =       1.7555 seconds


  Peak dynamic memory used =       2.36 MB 


  Timing analysis for GULP :

--------------------------------------------------------------------------------
  Task / Subroutine                                          Time (Seconds)
--------------------------------------------------------------------------------
  Calculation of reciprocal space energy and derivatives          0.0159
  Calculation of real space energy and derivatives                0.0657
  Calculation of three-body energy and derivatives                0.0037
  Calculation of four-body energy and derivatives                 0.0074
  Calculation of molecules and connectivity                       0.0009
  Calculation of COSMIC solvation energy                          0.6230
  Calculation of COSMIC solvation derivatives                     1.0270
  Calculation of matrix inversion                                 0.0144
--------------------------------------------------------------------------------
  Total CPU time                                                  1.7555
--------------------------------------------------------------------------------


  Dump file written as example42.res                                           


  Job Finished at 17:24.09 28th July       2013                               

