********************************************************************************
*                       GENERAL UTILITY LATTICE PROGRAM                        *
*                                 Julian Gale                                  *
*                      Nanochemistry Research Institute                        *
*                           Department of Chemistry                            *
*                    Curtin University, Western Australia                      *
********************************************************************************
* Version = 4.1.2 * Last modified =   7th October 2013                         *
********************************************************************************
*  optimise     - perform optimisation run                                     *
*  conp         - constant pressure calculation                                *
*  property     - calculate properties for final geometry                      *
*  phonon       - calculate phonons for final geometry                         *
*  intensity    - calculate phonon eigenvectors and estimate IR intensities    *
*  raman        - calculate Raman susceptibility                               *
********************************************************************************

  Job Started  at 15:59.19  7th October    2013                               

  Number of CPUs =     1

  Host name      = M-A0002884.local                        


  Total number of configurations input =   1

********************************************************************************
*  Input for Configuration =   1                                               *
********************************************************************************

  Formula = Si3O6                                                       

  Number of irreducible atoms/shells =       3


  Total number atoms/shells =      15

  Dimensionality = 3               :  Bulk   


  Symmetry :

  Crystal family                   :  Hexagonal   
  Crystal class  (Groth - 1921)    :  Trigonal Trapezohedral               

  Space group (noncentrosymmetric) :  P 31 2 1        

  Patterson group                  :  P -3 m 1 

  Cartesian lattice vectors (Angstroms) :

        4.914730    0.000000    0.000000
       -2.457365    4.256281    0.000000
        0.000000    0.000000    5.406570

  Cell parameters (Angstroms/Degrees):

  a =       4.9147    alpha =  90.0000
  b =       4.9147    beta  =  90.0000
  c =       5.4066    gamma = 120.0000

  Initial cell volume =         113.097184 Angs**3

  Temperature of configuration =  0.000     K 

  Pressure of configuration =         0.000 GPa 

  Fractional coordinates of asymmetric unit :

--------------------------------------------------------------------------------
   No.  Atomic       x           y          z         Charge      Occupancy
        Label      (Frac)      (Frac)     (Frac)        (e)         (Frac)  
--------------------------------------------------------------------------------
      1 Si    c    0.468200 *  0.000000    0.333333     4.00000    1.000000    
      2 O     c    0.413100 *  0.266100 *  0.213100 *   0.86902    1.000000    
      3 O     s    0.431813 *  0.264902 *  0.204106 *  -2.86902    1.000000    
--------------------------------------------------------------------------------


  Constraints : 

--------------------------------------------------------------------------------
  Constraint no.      Unconstrained     Constrained    Coefficient    Offset
                         Variable         Variable
--------------------------------------------------------------------------------
           1              Strain 1        Strain 2       1.00000      0.0000
--------------------------------------------------------------------------------


********************************************************************************
*  General input information                                                   *
********************************************************************************

  Species output for all configurations : 

--------------------------------------------------------------------------------
  Species    Type    Atomic    Atomic    Charge       Radii (Angs)     Library
                     Number     Mass       (e)     Cova   Ionic  VDW   Symbol
--------------------------------------------------------------------------------
    Si       Core       14      28.09   4.000000   1.200  0.000  2.100          
    O        Core        8      16.00   0.869020   0.730  0.000  1.360          
    O        Shell       8       0.00  -2.869020   0.730  0.000  1.360          
--------------------------------------------------------------------------------


  Lattice summation method               =    Ewald          (3-D)
                                         =    Parry          (2-D)
                                         =    Saunders et al (1-D)
  Accuracy factor for lattice sums       =   12.000


  Time limit = Infinity

  Maximum range for interatomic potentials =    100000.000000 Angstroms

  General interatomic potentials :

--------------------------------------------------------------------------------
Atom  Types   Potential         A         B         C         D     Cutoffs(Ang)
  1     2                                                            Min    Max 
--------------------------------------------------------------------------------
Si   c O    s Buckingham    0.128E+04 0.321      10.7      0.00     0.000 12.000
O    s O    s Buckingham    0.228E+05 0.149      27.9      0.00     0.000 12.000
O    c O    s Spring (c-s)   74.9      0.00      0.00      0.00     0.000  0.800
--------------------------------------------------------------------------------

  General Three-body potentials :

  Harmonic form:

--------------------------------------------------------------------------------
Atom    Atom    Atom           Force Constants            Theta     Cutoffs  
  1       2       3     (eVrad**-2/eVrad**-3/eVrad**-4)   (deg)  1-2  1-3  2-3
--------------------------------------------------------------------------------
Si    c O     s O     s  2.097        0.0000    0.0000   109.470 0.00 0.00 0.00
                                                                 1.80 1.80 3.50
--------------------------------------------------------------------------------

********************************************************************************
*  Output for configuration   1                                                *
********************************************************************************


  Components of energy : 

--------------------------------------------------------------------------------
  Interatomic potentials     =         104.20124050 eV
  Three-body potentials      =           0.05967375 eV
  Monopole - monopole (real) =        -111.26563177 eV
  Monopole - monopole (recip)=        -379.17637423 eV
  Monopole - monopole (total)=        -490.44200600 eV
--------------------------------------------------------------------------------
  Total lattice energy       =        -386.18109175 eV
--------------------------------------------------------------------------------
  Total lattice energy       =          -37260.5720 kJ/(mole unit cells)
--------------------------------------------------------------------------------


  Number of variables =        9

  Maximum number of calculations  =          1000
  Maximum Hessian update interval =            10
  Maximum step size               =   1.000000000
  Maximum parameter tolerance     =   0.000010000
  Maximum function  tolerance     =   0.000010000
  Maximum gradient  tolerance     =   0.001000000
  Maximum gradient  component     =   0.010000000

  Symmetry constrained optimisation

  Symmetry used for second derivatives

  Cell parameters to be optimised using strains

  Newton-Raphson optimiser to be used

  BFGS hessian update to be used

  Dumpfile to be written after every cycle

  Start of bulk optimisation :

  Cycle:      0 Energy:      -386.181092  Gnorm:      0.750280  CPU:    0.006
  ** Hessian calculated **
  Cycle:      1 Energy:      -386.222886  Gnorm:      0.313181  CPU:    0.009
  Cycle:      2 Energy:      -386.224259  Gnorm:      0.115989  CPU:    0.013
  Cycle:      3 Energy:      -386.224931  Gnorm:      0.030540  CPU:    0.016
  Cycle:      4 Energy:      -386.224950  Gnorm:      0.002409  CPU:    0.019


  **** Optimisation achieved ****


  Final energy =    -386.22495657 eV
  Final Gnorm  =       0.00053893

  Components of energy : 

--------------------------------------------------------------------------------
  Interatomic potentials     =         106.76170366 eV
  Three-body potentials      =           0.04851715 eV
  Monopole - monopole (real) =        -108.17585089 eV
  Monopole - monopole (recip)=        -384.85932650 eV
  Monopole - monopole (total)=        -493.03517739 eV
--------------------------------------------------------------------------------
  Total lattice energy       =        -386.22495657 eV
--------------------------------------------------------------------------------
  Total lattice energy       =          -37264.8043 kJ/(mole unit cells)
--------------------------------------------------------------------------------

  Final asymmetric unit coordinates :

--------------------------------------------------------------------------------
   No.  Atomic        x           y           z         Radius
        Label       (Frac)      (Frac)      (Frac)       (Angs) 
--------------------------------------------------------------------------------
     1  Si    c     0.463669    0.000000    0.333333    0.000000
     2  O     c     0.408171    0.278693    0.224865    0.000000
     3  O     s     0.428090    0.276072    0.212984    0.000000
--------------------------------------------------------------------------------

  Final Cartesian lattice vectors (Angstroms) :

        4.832773    0.000000    0.000000
       -2.416386    4.185304    0.000000
        0.000000    0.000000    5.343315


  Final cell parameters and derivatives :

--------------------------------------------------------------------------------
       a            4.832773 Angstrom     dE/de1(xx)    -0.000594 eV/strain
       b            4.832773 Angstrom     dE/de2(yy)     0.000000 eV/strain
       c            5.343315 Angstrom     dE/de3(zz)    -0.000086 eV/strain
       alpha       90.000000 Degrees      dE/de4(yz)     0.000000 eV/strain
       beta        90.000000 Degrees      dE/de5(xz)     0.000000 eV/strain
       gamma      120.000000 Degrees      dE/de6(xy)     0.000000 eV/strain
--------------------------------------------------------------------------------

  Primitive cell volume =           108.077223 Angs**3

  Density of cell =      2.769780 g/cm**3

  Non-primitive cell volume =           108.077223 Angs**3


  Final internal derivatives :

--------------------------------------------------------------------------------
   No.  Atomic          a             b             c           Radius
        Label          (eV)          (eV)          (eV)        (eV/Angs)
--------------------------------------------------------------------------------
      1 Si    c      -0.001267      0.000000      0.000000      0.000000
      2 O     c       0.001101     -0.003202      0.002618      0.000000
      3 O     s       0.000180      0.001363     -0.001161      0.000000
--------------------------------------------------------------------------------
  Maximum abs         0.001267      0.003202      0.002618      0.000000
--------------------------------------------------------------------------------


  Born effective charge tensors : 

-------------------------------------------------------------------------------
  Atom             x           y             z
-------------------------------------------------------------------------------
   1 Si    x       3.1475      0.0000      0.0000
           y       0.0000      3.5551      0.3361
           z       0.0000     -0.1951      3.4514
-------------------------------------------------------------------------------
   2 O     x      -1.4064      0.3783     -0.2517
           y       0.3741     -1.9449      0.5311
           z      -0.1659      0.5898     -1.7257
-------------------------------------------------------------------------------



  Core and shell Raman susceptibility tensors (Ang**-1): 

-------------------------------------------------------------------------------
  Atom                   x           y           z
-------------------------------------------------------------------------------
   1 Si    core x      -0.1150      0.0000      0.0000
     X          y       0.0000      0.3286     -1.0550
                z       0.0000     -1.0550     -0.3576
                x      -0.0000      0.3452     -0.9288
     Y          y       0.3452     -0.0000      0.0000
                z      -0.9288      0.0000      0.0000
                x       0.0000     -0.9507     -0.4130
     Z          y      -0.9507      0.0000      0.0000
                z      -0.4130      0.0000      0.0000
-------------------------------------------------------------------------------
   2 Si    core x      -0.3677      0.0534     -0.8590
     X          y       0.0534      0.2609      0.4328
                z      -0.8590      0.4328      0.1788
                x       0.0391      0.2526      0.5591
     Y          y       0.2526      0.1459      0.8590
                z       0.5591      0.8590     -0.3097
                x      -0.8233      0.4754      0.2065
     Z          y       0.4754      0.8233     -0.3577
                z       0.2065     -0.3577      0.0000
-------------------------------------------------------------------------------
   3 Si    core x      -0.3677     -0.0534      0.8590
     X          y      -0.0534      0.2609      0.4328
                z       0.8590      0.4328      0.1788
                x      -0.0391      0.2526      0.5591
     Y          y       0.2526     -0.1459     -0.8590
                z       0.5591     -0.8590      0.3097
                x       0.8233      0.4754      0.2065
     Z          y       0.4754     -0.8233      0.3577
                z       0.2065      0.3577      0.0000
-------------------------------------------------------------------------------
   4 O     core x       0.0931     -0.0296     -0.0275
     X          y      -0.0296      0.0553      0.0127
                z      -0.0275      0.0127      0.0694
                x      -0.0012     -0.0107     -0.0017
     Y          y      -0.0107     -0.0499      0.0210
                z      -0.0017      0.0210     -0.0229
                x      -0.0600      0.0263     -0.0044
     Z          y       0.0263     -0.0266      0.0167
                z      -0.0044      0.0167     -0.0617
-------------------------------------------------------------------------------
   5 O     core x       0.0212      0.0144      0.0136
     X          y       0.0144     -0.0511      0.0255
                z       0.0136      0.0255     -0.0148
                x       0.0574      0.0065      0.0111
     Y          y       0.0065      0.0967     -0.0201
                z       0.0111     -0.0201      0.0716
                x      -0.0122      0.0013     -0.0123
     Z          y       0.0013     -0.0744     -0.0121
                z      -0.0123     -0.0121     -0.0617
-------------------------------------------------------------------------------
   6 O     core x      -0.0698      0.0073      0.0042
     X          y       0.0073     -0.0486     -0.0166
                z       0.0042     -0.0166     -0.0546
                x      -0.0640     -0.0402     -0.0309
     Y          y      -0.0402     -0.0389     -0.0106
                z      -0.0309     -0.0106     -0.0486
                x      -0.0577     -0.0276      0.0166
     Z          y      -0.0276     -0.0289     -0.0046
                z       0.0166     -0.0046     -0.0617
-------------------------------------------------------------------------------
   7 O     core x       0.0931      0.0296      0.0275
     X          y       0.0296      0.0553      0.0127
                z       0.0275      0.0127      0.0694
                x       0.0012     -0.0107     -0.0017
     Y          y      -0.0107      0.0499     -0.0210
                z      -0.0017     -0.0210      0.0229
                x       0.0600      0.0263     -0.0044
     Z          y       0.0263      0.0266     -0.0167
                z      -0.0044     -0.0167      0.0617
-------------------------------------------------------------------------------
   8 O     core x       0.0212     -0.0144     -0.0136
     X          y      -0.0144     -0.0511      0.0255
                z      -0.0136      0.0255     -0.0148
                x      -0.0574      0.0065      0.0111
     Y          y       0.0065     -0.0967      0.0201
                z       0.0111      0.0201     -0.0716
                x       0.0122      0.0013     -0.0123
     Z          y       0.0013      0.0744      0.0121
                z      -0.0123      0.0121      0.0617
-------------------------------------------------------------------------------
   9 O     core x      -0.0698     -0.0073     -0.0042
     X          y      -0.0073     -0.0486     -0.0166
                z      -0.0042     -0.0166     -0.0546
                x       0.0640     -0.0402     -0.0309
     Y          y      -0.0402      0.0389      0.0106
                z      -0.0309      0.0106      0.0486
                x       0.0577     -0.0276      0.0166
     Z          y      -0.0276      0.0289      0.0046
                z       0.0166      0.0046      0.0617
-------------------------------------------------------------------------------
  10 O     shel x      -0.5258      0.1857      0.0723
     X          y       0.1857     -0.4946      0.0799
                z       0.0723      0.0799     -0.1894
                x       0.0812     -0.2695      0.0311
     Y          y      -0.2695      0.0908      0.1857
                z       0.0311      0.1857      0.0011
                x       0.1432      0.0336     -0.0866
     Z          y       0.0336      0.1080      0.0384
                z      -0.0866      0.0384      0.3864
-------------------------------------------------------------------------------
  11 O     shel x       0.2963     -0.0806      0.2054
     X          y      -0.0806      0.0649      0.0457
                z       0.2054      0.0457      0.0937
                x      -0.2233     -0.1381     -0.0030
     Y          y      -0.1381     -0.7464      0.0525
                z      -0.0030      0.0525     -0.1646
                x       0.1459     -0.0320      0.0100
     Z          y      -0.0320      0.1053     -0.0943
                z       0.0100     -0.0943      0.3864
-------------------------------------------------------------------------------
  12 O     shel x       0.6103      0.1663      0.1092
     X          y       0.1663      0.0489     -0.0525
                z       0.1092     -0.0525      0.0957
                x       0.4135      0.0268     -0.1012
     Y          y       0.0268      0.3842      0.1487
                z      -0.1012      0.1487      0.1635
                x       0.0877     -0.0015      0.0766
     Z          y      -0.0015      0.1635      0.0558
                z       0.0766      0.0558      0.3864
-------------------------------------------------------------------------------
  13 O     shel x      -0.5258     -0.1857     -0.0723
     X          y      -0.1857     -0.4946      0.0799
                z      -0.0723      0.0799     -0.1894
                x      -0.0812     -0.2695      0.0311
     Y          y      -0.2695     -0.0908     -0.1857
                z       0.0311     -0.1857     -0.0011
                x      -0.1432      0.0336     -0.0866
     Z          y       0.0336     -0.1080     -0.0384
                z      -0.0866     -0.0384     -0.3864
-------------------------------------------------------------------------------
  14 O     shel x       0.2963      0.0806     -0.2054
     X          y       0.0806      0.0650      0.0457
                z      -0.2054      0.0457      0.0937
                x       0.2233     -0.1381     -0.0030
     Y          y      -0.1381      0.7463     -0.0525
                z      -0.0030     -0.0525      0.1646
                x      -0.1459     -0.0320      0.0100
     Z          y      -0.0320     -0.1053      0.0942
                z       0.0100      0.0942     -0.3864
-------------------------------------------------------------------------------
  15 O     shel x       0.6102     -0.1663     -0.1093
     X          y      -0.1663      0.0489     -0.0525
                z      -0.1093     -0.0525      0.0957
                x      -0.4135      0.0268     -0.1012
     Y          y       0.0268     -0.3842     -0.1487
                z      -0.1012     -0.1487     -0.1635
                x      -0.0877     -0.0015      0.0766
     Z          y      -0.0015     -0.1635     -0.0558
                z       0.0766     -0.0558     -0.3864
-------------------------------------------------------------------------------



  Atomic Raman susceptibility tensors (Ang**-1): 

-------------------------------------------------------------------------------
  Atom                   x           y           z
-------------------------------------------------------------------------------
   1 Si    core x      -0.1150      0.0000      0.0000
     X          y       0.0000      0.3286     -1.0550
                z       0.0000     -1.0550     -0.3576
                x      -0.0000      0.3452     -0.9288
     Y          y       0.3452     -0.0000      0.0000
                z      -0.9288      0.0000      0.0000
                x       0.0000     -0.9507     -0.4130
     Z          y      -0.9507      0.0000      0.0000
                z      -0.4130      0.0000      0.0000
-------------------------------------------------------------------------------
   2 Si    core x      -0.3677      0.0534     -0.8590
     X          y       0.0534      0.2609      0.4328
                z      -0.8590      0.4328      0.1788
                x       0.0391      0.2526      0.5591
     Y          y       0.2526      0.1459      0.8590
                z       0.5591      0.8590     -0.3097
                x      -0.8233      0.4754      0.2065
     Z          y       0.4754      0.8233     -0.3577
                z       0.2065     -0.3577      0.0000
-------------------------------------------------------------------------------
   3 Si    core x      -0.3677     -0.0534      0.8590
     X          y      -0.0534      0.2609      0.4328
                z       0.8590      0.4328      0.1788
                x      -0.0391      0.2526      0.5591
     Y          y       0.2526     -0.1459     -0.8590
                z       0.5591     -0.8590      0.3097
                x       0.8233      0.4754      0.2065
     Z          y       0.4754     -0.8233      0.3577
                z       0.2065      0.3577      0.0000
-------------------------------------------------------------------------------
   4 O     core x      -0.4327      0.1561      0.0447
     X          y       0.1561     -0.4393      0.0925
                z       0.0447      0.0925     -0.1200
                x       0.0800     -0.2802      0.0294
     Y          y      -0.2802      0.0409      0.2067
                z       0.0294      0.2067     -0.0218
                x       0.0832      0.0598     -0.0910
     Z          y       0.0598      0.0814      0.0551
                z      -0.0910      0.0551      0.3247
-------------------------------------------------------------------------------
   5 O     core x       0.3175     -0.0662      0.2190
     X          y      -0.0662      0.0138      0.0712
                z       0.2190      0.0712      0.0789
                x      -0.1659     -0.1316      0.0081
     Y          y      -0.1316     -0.6497      0.0324
                z       0.0081      0.0324     -0.0930
                x       0.1336     -0.0307     -0.0022
     Z          y      -0.0307      0.0309     -0.1064
                z      -0.0022     -0.1064      0.3247
-------------------------------------------------------------------------------
   6 O     core x       0.5404      0.1736      0.1134
     X          y       0.1736      0.0002     -0.0691
                z       0.1134     -0.0691      0.0411
                x       0.3494     -0.0134     -0.1322
     Y          y      -0.0134      0.3453      0.1380
                z      -0.1322      0.1380      0.1148
                x       0.0300     -0.0291      0.0932
     Z          y      -0.0291      0.1345      0.0512
                z       0.0932      0.0512      0.3247
-------------------------------------------------------------------------------
   7 O     core x      -0.4327     -0.1561     -0.0447
     X          y      -0.1561     -0.4393      0.0925
                z      -0.0447      0.0925     -0.1200
                x      -0.0800     -0.2802      0.0294
     Y          y      -0.2802     -0.0409     -0.2067
                z       0.0294     -0.2067      0.0218
                x      -0.0832      0.0598     -0.0910
     Z          y       0.0598     -0.0814     -0.0551
                z      -0.0910     -0.0551     -0.3247
-------------------------------------------------------------------------------
   8 O     core x       0.3175      0.0662     -0.2190
     X          y       0.0662      0.0138      0.0712
                z      -0.2190      0.0712      0.0789
                x       0.1659     -0.1316      0.0081
     Y          y      -0.1316      0.6497     -0.0324
                z       0.0081     -0.0324      0.0930
                x      -0.1336     -0.0307     -0.0022
     Z          y      -0.0307     -0.0309      0.1064
                z      -0.0022      0.1064     -0.3247
-------------------------------------------------------------------------------
   9 O     core x       0.5404     -0.1736     -0.1134
     X          y      -0.1736      0.0002     -0.0691
                z      -0.1134     -0.0691      0.0411
                x      -0.3494     -0.0134     -0.1322
     Y          y      -0.0134     -0.3453     -0.1380
                z      -0.1322     -0.1380     -0.1148
                x      -0.0300     -0.0291      0.0932
     Z          y      -0.0291     -0.1345     -0.0513
                z       0.0932     -0.0513     -0.3247
-------------------------------------------------------------------------------




  Elastic Constant Matrix: (Units=GPa)

-------------------------------------------------------------------------------
  Indices      1         2         3         4         5         6    
-------------------------------------------------------------------------------
       1     94.7112   18.5517   19.7658  -14.4598    0.0002    0.0000
       2     18.5517   94.7112   19.7658   14.4598   -0.0002   -0.0000
       3     19.7658   19.7658  116.2855   -0.0000    0.0000   -0.0000
       4    -14.4598   14.4598   -0.0000   50.0491    0.0000   -0.0002
       5      0.0002   -0.0002    0.0000    0.0000   50.0491  -14.4598
       6      0.0000   -0.0000   -0.0000   -0.0002  -14.4598   38.0797
-------------------------------------------------------------------------------


  Elastic Compliance Matrix: (Units=1/GPa)

-------------------------------------------------------------------------------
  Indices      1         2         3         4         5         6    
-------------------------------------------------------------------------------
       1    0.012067 -0.002681 -0.001595  0.004261 -0.000000 -0.000000
       2   -0.002681  0.012067 -0.001595 -0.004261  0.000000  0.000000
       3   -0.001595 -0.001595  0.009142 -0.000000  0.000000  0.000000
       4    0.004261 -0.004261 -0.000000  0.022442 -0.000000  0.000000
       5   -0.000000  0.000000  0.000000 -0.000000  0.022442  0.008522
       6   -0.000000  0.000000  0.000000  0.000000  0.008522  0.029497
-------------------------------------------------------------------------------

  Mechanical properties :

-------------------------------------------------------------------------------
  Convention :                    Reuss         Voigt         Hill
-------------------------------------------------------------------------------
  Bulk  Modulus (GPa)     =      46.44237      46.87496      46.65866
  Shear Modulus (GPa)     =      39.50100      44.14389      41.82245
-------------------------------------------------------------------------------
  Velocity S-wave (km/s)  =       3.77643       3.99220       3.88581
  Velocity P-wave (km/s)  =       5.98187       6.17851       6.08098
-------------------------------------------------------------------------------
  Compressibility (1/GPa) =    0.02153206
-------------------------------------------------------------------------------
  Stress axis :                     x             y             z
-------------------------------------------------------------------------------
  Youngs Moduli (GPa)     =      82.87002      82.87002     109.38675
-------------------------------------------------------------------------------
  Poissons Ratio (x)      =                     0.22220       0.17451
  Poissons Ratio (y)      =       0.22220                     0.17451
  Poissons Ratio (z)      =       0.13221       0.13221
-------------------------------------------------------------------------------


  Piezoelectric Strain Matrix: (Units=C/m**2)

-------------------------------------------------------------------------------
  Indices      1         2         3         4         5         6    
-------------------------------------------------------------------------------
       x     2.69182  -2.69182  -0.00000  -1.41366   0.00007   0.00001
       y     0.00001  -0.00001  -0.00000   0.00007   1.41366  -2.69182
       z    -0.00004  -0.00004   0.00010   0.00000   0.00000  -0.00000
-------------------------------------------------------------------------------


  Piezoelectric Stress Matrix: (Units=10**-11 C/N)

-------------------------------------------------------------------------------
  Indices      1         2         3         4         5         6    
-------------------------------------------------------------------------------
       x     3.36763  -3.36763  -0.00000  -0.87865   0.00013   0.00006
       y     0.00003  -0.00003  -0.00000   0.00013   0.87865  -6.73526
       z    -0.00005  -0.00005   0.00011   0.00000   0.00000  -0.00000
-------------------------------------------------------------------------------


  Static dielectric constant tensor : 

-------------------------------------------------------------------------------
              x         y         z
-------------------------------------------------------------------------------
       x     4.75221  -0.00000  -0.00000
       y    -0.00000   4.75221   0.00000
       z    -0.00000   0.00000   5.02516
--------------------------------------------------------------------------------

  High frequency dielectric constant tensor : 

-------------------------------------------------------------------------------
              x         y         z
-------------------------------------------------------------------------------
       x     2.11948  -0.00000   0.00000
       y    -0.00000   2.11948  -0.00000
       z     0.00000  -0.00000   2.14288
-------------------------------------------------------------------------------

  Static refractive indices : 

-------------------------------------------------------------------------------
    1 =    2.17996      2 =    2.17996      3 =    2.24169
-------------------------------------------------------------------------------

  High frequency refractive indices : 

-------------------------------------------------------------------------------
    1 =    1.45584      2 =    1.45584      3 =    1.46386
-------------------------------------------------------------------------------


  Phonon Calculation : 

  K direction for n-a correction at gamma =  1.00000  1.00000  1.00000

  Directions for Raman intensities: Type  =  Fractional 
                                    In    =  1.00000  0.00000  0.00000
                                    Out   =  0.00000  0.00000  1.00000

  Number of k points for this configuration =        1

--------------------------------------------------------------------------------
  K point      1 =   0.000000  0.000000  0.000000  Weight =    1.000
--------------------------------------------------------------------------------

 Frequencies (cm-1) and Eigenvectors : 

 Frequency      -0.0000   -0.0000    0.0000  146.5854  146.6617  231.6449
 IR Intensity    0.0000    0.0000    0.0000    0.0002    0.0002    0.0000
    in X         0.0000    0.0000    0.0000    0.0001    0.0002    0.0000
    in Y         0.0000    0.0000    0.0000    0.0002    0.0001    0.0000
    in Z         0.0000    0.0000    0.0000    0.0000    0.0000    0.0000
 Raman Intsty    0.0000    0.0000    0.0000    0.0409    0.0136    0.0000

     1 x       0.373398  0.105280  0.072884 -0.049408  0.085578 -0.261790
     1 y      -0.115277  0.374203  0.050053  0.104343  0.060242 -0.000000
     1 z       0.055742  0.068631 -0.384713 -0.028339 -0.016362  0.000000
     2 x       0.373398  0.105280  0.072884  0.115068 -0.009382  0.130896
     2 y      -0.115277  0.374203  0.050053  0.009382 -0.104234 -0.226717
     2 z       0.055742  0.068631 -0.384713  0.028340 -0.016362  0.000000
     3 x       0.373398  0.105280  0.072884 -0.049408 -0.104343  0.130895
     3 y      -0.115277  0.374203  0.050053 -0.085578  0.060243  0.226717
     3 z       0.055742  0.068631 -0.384713 -0.000000  0.032724  0.000000
     4 x       0.281810  0.079456  0.055007 -0.161068  0.197783 -0.058457
     4 y      -0.087001  0.282417  0.037776  0.071634  0.350853  0.291810
     4 z       0.042070  0.051797 -0.290350  0.123282  0.334913  0.209353
     5 x       0.281810  0.079456  0.055007  0.339534  0.217389 -0.223486
     5 y      -0.087001  0.282417  0.037776  0.091240 -0.149749 -0.196530
     5 z       0.042070  0.051797 -0.290350 -0.351685 -0.060691  0.209353
     6 x       0.281810  0.079456  0.055007  0.106212 -0.225949  0.281943
     6 y      -0.087001  0.282417  0.037776 -0.352097  0.083573 -0.095280
     6 z       0.042070  0.051797 -0.290350  0.228402 -0.274222  0.209353
     7 x       0.281810  0.079456  0.055007 -0.090751  0.238381 -0.058458
     7 y      -0.087001  0.282417  0.037776  0.339667 -0.113389 -0.291811
     7 z       0.042070  0.051797 -0.290350  0.351686 -0.060690 -0.209354
     8 x       0.281810  0.079456  0.055007 -0.358032 -0.185352 -0.223487
     8 y      -0.087001  0.282417  0.037776 -0.084067  0.153892  0.196531
     8 z       0.042070  0.051797 -0.290350 -0.228403 -0.274224 -0.209354
     9 x       0.281810  0.079456  0.055007  0.142572 -0.204957  0.281945
     9 y      -0.087001  0.282417  0.037776 -0.103672 -0.346713  0.095280
     9 z       0.042070  0.051797 -0.290350 -0.123284  0.334915 -0.209354


 Frequency     271.5111  274.9174  332.1997  339.7305  398.1175  401.8669
 IR Intensity    0.0252    0.0252    0.2330    0.0000    0.0714    0.0714
    in X         0.0063    0.0189    0.0000    0.0000    0.0179    0.0535
    in Y         0.0189    0.0063    0.0000    0.0000    0.0535    0.0179
    in Z         0.0000    0.0000    0.2330    0.0000    0.0000    0.0000
 Raman Intsty    0.0506    0.0167    0.0000    0.0000    1.5081    0.4980

     1 x       0.007613  0.013186  0.000014  0.396741 -0.061614 -0.106714
     1 y      -0.135090  0.078002 -0.062577  0.000003  0.275259 -0.158926
     1 z       0.168105 -0.097066  0.187575 -0.000006  0.182552 -0.105401
     2 x      -0.120803 -0.060948  0.054186 -0.198373  0.269190  0.084269
     2 y      -0.060956 -0.050415  0.031300  0.343587  0.084277  0.171878
     2 z      -0.168114 -0.097051  0.187575 -0.000006 -0.182556 -0.105394
     3 x       0.007607 -0.135093 -0.054200 -0.198368 -0.061608  0.275263
     3 y       0.013189  0.077995  0.031276 -0.343589 -0.106717 -0.158920
     3 z       0.000009  0.194116  0.187575 -0.000006  0.000004  0.210795
     4 x       0.347604 -0.313215 -0.206828  0.187820 -0.301652 -0.045620
     4 y       0.195342 -0.043042 -0.298149  0.055864  0.109874  0.067494
     4 z       0.165641  0.125820 -0.124261  0.222650  0.251906  0.282579
     5 x       0.339394  0.200082  0.361619 -0.142289 -0.058702 -0.030393
     5 y      -0.317955 -0.051252 -0.030044  0.134725  0.094647  0.310443
     5 z       0.026143 -0.206360 -0.124261  0.222650  0.118767 -0.359446
     6 x      -0.101029 -0.063677 -0.154791 -0.045530 -0.193364  0.172394
     6 y      -0.054197 -0.491675  0.328193 -0.190589 -0.108140  0.175781
     6 z      -0.191784  0.080540 -0.124261  0.222650 -0.370673  0.076868
     7 x      -0.445042  0.144464  0.206839  0.187805  0.111308 -0.284054
     7 y       0.134932 -0.147661 -0.298152 -0.055844 -0.003522 -0.128899
     7 z      -0.026161 -0.206356 -0.124276 -0.222643 -0.118785 -0.359443
     8 x       0.003612  0.393963 -0.361627 -0.142265  0.003028 -0.066038
     8 y      -0.114567  0.300993 -0.030052 -0.134722 -0.221539 -0.237180
     8 z       0.191790  0.080522 -0.124276 -0.222643  0.370679  0.076851
     9 x      -0.004642 -0.119332  0.154787 -0.045541  0.245975 -0.081273
     9 y       0.398729  0.292739  0.328204  0.190566 -0.206304  0.005768
     9 z      -0.165629  0.125834 -0.124276 -0.222643 -0.251894  0.282592


 Frequency     440.4129  467.7397  484.0498  527.2841  718.7582  720.7408
 IR Intensity    0.5133    0.5133    0.0000    0.4491    0.0121    0.0121
    in X         0.3850    0.1283    0.0000    0.0000    0.0091    0.0030
    in Y         0.1283    0.3850    0.0000    0.0000    0.0030    0.0091
    in Z         0.0000    0.0000    0.0000    0.4491    0.0000    0.0000
 Raman Intsty    0.0148    0.0419    0.0000    0.0000    0.0056    0.0167

     1 x       0.190385  0.109919 -0.173791 -0.000001  0.097924 -0.056539
     1 y      -0.141537  0.245153  0.000001 -0.132049  0.103105  0.178576
     1 z      -0.083897  0.145319 -0.000001  0.220415 -0.299593 -0.518901
     2 x       0.217771  0.157348  0.086895  0.114358 -0.040324  0.182922
     2 y      -0.094108  0.217768 -0.150507  0.066024 -0.136356  0.040328
     2 z      -0.083902 -0.145317 -0.000001  0.220415 -0.299585  0.518906
     3 x       0.245152  0.109917  0.086896 -0.114357 -0.178579 -0.056534
     3 y      -0.141539  0.190386  0.150507  0.066025  0.103100 -0.097927
     3 z       0.167799 -0.000002 -0.000001  0.220415  0.599178 -0.000005
     4 x      -0.249794 -0.021943  0.340263  0.325109  0.194045 -0.011202
     4 y      -0.147785 -0.207586  0.103710 -0.081478 -0.146954  0.214116
     4 z       0.161763 -0.317880 -0.158204 -0.146027 -0.044123 -0.137867
     5 x      -0.291632  0.123630 -0.259946 -0.091993 -0.170858  0.063723
     5 y      -0.002213 -0.165747  0.242821  0.322292 -0.221879 -0.150787
     5 z       0.194411  0.299031 -0.158204 -0.146027 -0.097335  0.107145
     6 x      -0.144643  0.087077 -0.080316 -0.233117 -0.053293 -0.289755
     6 y      -0.038766 -0.312736 -0.346531 -0.240814  0.131599 -0.033223
     6 z      -0.356174  0.018849 -0.158204 -0.146027  0.141458  0.030722
     7 x      -0.143900 -0.205355  0.340269 -0.325105  0.106719 -0.162449
     7 y       0.253667  0.024192 -0.103709 -0.081480  0.258905 -0.020215
     7 z       0.194408 -0.299029  0.158205 -0.146023 -0.097338 -0.107139
     8 x      -0.038751 -0.314375 -0.259949  0.091989 -0.140610  0.116109
     8 y       0.144647 -0.080957 -0.242827  0.322289 -0.019653 -0.267545
     8 z      -0.356171 -0.018848  0.158205 -0.146023  0.141454 -0.030727
     9 x       0.003089 -0.168803 -0.080320  0.233116  0.224293  0.191024
     9 y       0.290219 -0.122797  0.346536 -0.240809 -0.094568  0.097358
     9 z       0.161763  0.317877  0.158205 -0.146023 -0.044117  0.137866


 Frequency     818.1818  823.8701  835.6561  888.3889  888.4996  901.3241
 IR Intensity    0.5366    0.2932    0.2932    0.0000    1.4521    1.4521
    in X         0.0000    0.0733    0.2199    0.0000    1.0890    0.3630
    in Y         0.0000    0.2199    0.0733    0.0000    0.3630    1.0890
    in Z         0.5366    0.0000    0.0000    0.0000    0.0000    0.0000
 Raman Intsty    0.0000    1.9810    0.6510    0.0000    0.0995    0.2940

     1 x      -0.000006 -0.320608  0.555349  0.277835  0.100002  0.057720
     1 y      -0.500364  0.250329  0.144529 -0.000019 -0.193006  0.334261
     1 z      -0.197637  0.135948  0.078487  0.000000 -0.061653  0.106779
     2 x       0.433331  0.377114  0.152501 -0.138902  0.217116  0.260622
     2 y       0.250176 -0.152519 -0.553192  0.240621  0.009896  0.217148
     2 z      -0.197637 -0.135946  0.078491  0.000001 -0.061646 -0.106783
     3 x      -0.433325 -0.320624 -0.250320 -0.138933  0.334277  0.057747
     3 y       0.250187 -0.555340  0.144546 -0.240603 -0.192979  0.099985
     3 z      -0.197637 -0.000002 -0.156978  0.000000  0.123300  0.000004
     4 x       0.006897  0.196884 -0.119688 -0.110435 -0.107069  0.114388
     4 y      -0.069023 -0.003586  0.068692  0.260078  0.324716 -0.155104
     4 z       0.130940 -0.125744  0.001540 -0.219631 -0.269531  0.133730
     5 x       0.056327  0.047361 -0.082742 -0.170016  0.047043 -0.235740
     5 y       0.040484  0.033361  0.218215 -0.225678 -0.025412 -0.309216
     5 z       0.130940  0.061538 -0.109667 -0.219630  0.018952 -0.300286
     6 x      -0.063224  0.154119  0.028276  0.280452 -0.333233 -0.194140
     6 y       0.028538  0.144379  0.111457 -0.034399  0.016188  0.071060
     6 z       0.130940  0.064206  0.108128 -0.219631  0.250580  0.166555
     7 x      -0.006891  0.005201 -0.230359 -0.110427  0.045536 -0.149903
     7 y      -0.069009  0.057690 -0.037473 -0.260068 -0.028020 -0.358762
     7 z       0.130929 -0.061543 -0.109648  0.219630  0.018940  0.300290
     8 x      -0.056319  0.047963 -0.082379 -0.170012 -0.180644  0.158605
     8 y       0.040472  0.205670 -0.080236  0.225667  0.280489 -0.132581
     8 z       0.130929 -0.064186  0.108121  0.219630  0.250589 -0.166548
     9 x       0.063209 -0.101573 -0.119336  0.280440 -0.334730 -0.191527
     9 y       0.028537  0.168713  0.069300  0.034401 -0.069644  0.021505
     9 z       0.130929  0.125729  0.001526  0.219630 -0.269529 -0.133742


 Frequency    1007.2788 1017.0432 1114.0069
 IR Intensity    1.3149    0.0404    0.0404
    in X         0.0000    0.0101    0.0303
    in Y         0.0000    0.0303    0.0101
    in Z         1.3149    0.0000    0.0000
 Raman Intsty    0.0000    0.0127    0.0039

     1 x       0.000007 -0.001985  0.003442
     1 y       0.248227  0.108792  0.062813
     1 z      -0.233846 -0.342562 -0.197776
     2 x      -0.214974  0.095212 -0.052676
     2 y      -0.124108  0.052675 -0.034385
     2 z      -0.233846  0.342560 -0.197779
     3 x       0.214967 -0.001986 -0.108792
     3 y      -0.124119 -0.003441  0.062813
     3 z      -0.233846  0.000002  0.395556
     4 x       0.134699  0.144612 -0.040442
     4 y      -0.257619 -0.313681  0.167465
     4 z       0.154917  0.271102 -0.157212
     5 x       0.155755  0.008412  0.235046
     5 y       0.245462 -0.038193  0.303665
     5 z       0.154917  0.000599  0.313387
     6 x      -0.290454  0.315091  0.215255
     6 y       0.012157 -0.057984 -0.003014
     6 z       0.154917 -0.271701 -0.156175
     7 x      -0.134703 -0.037282 -0.145459
     7 y      -0.257632 -0.011810 -0.355391
     7 z       0.154929 -0.000600  0.313391
     8 x      -0.155764 -0.207765  0.110238
     8 y       0.245472  0.243887 -0.184908
     8 z       0.154929  0.271705 -0.156176
     9 x       0.290467 -0.343963 -0.165253
     9 y       0.012160 -0.031604 -0.048710
     9 z       0.154929 -0.271105 -0.157216


--------------------------------------------------------------------------------
  Phonon properties (per mole of unit cells): Temperature =      0.000 K
--------------------------------------------------------------------------------
  Zero point energy            =        0.880075 eV
--------------------------------------------------------------------------------

  Time to end of optimisation =       0.0439 seconds


  Peak dynamic memory used =       0.72 MB 


  Timing analysis for GULP :

--------------------------------------------------------------------------------
  Task / Subroutine                                          Time (Seconds)
--------------------------------------------------------------------------------
  Calculation of reciprocal space energy and derivatives          0.0026
  Calculation of reciprocal space energy using symmetry           0.0021
  Calculation of real space energy and derivatives                0.0101
  Calculation of real space energy using symmetry                 0.0145
  Calculation of three-body energy and derivatives                0.0025
  Calculation of phonons                                          0.0059
  Calculation of scattering                                       0.0000
  Symmetry generation of equivalent positions                     0.0003
--------------------------------------------------------------------------------
  Total CPU time                                                  0.0439
--------------------------------------------------------------------------------


  Dump file written as example53.res                                           


  Job Finished at 15:59.19  7th October    2013                               

