********************************************************************************
*                       GENERAL UTILITY LATTICE PROGRAM                        *
*                                 Julian Gale                                  *
*                      Nanochemistry Research Institute                        *
*                           Department of Chemistry                            *
*                    Curtin University, Western Australia                      *
********************************************************************************
* Version = 4.1.0 * Last modified =   7th July 2013                            *
********************************************************************************
*  optimise     - perform optimisation run                                     *
*  conv         - constant volume calculation                                  *
********************************************************************************

  Job Started  at 09:27.52 29th July       2013                               

  Number of CPUs =     1

  Host name      = M-A0002884.local                        


  Total number of configurations input =   1

********************************************************************************
*  Input for Configuration =   1 : diamond111                                  *
********************************************************************************

  Formula = C32                                                         

  Number of irreducible atoms/shells =      32


  Total number atoms/shells =      32

  Dimensionality = 2               :  Surface



  Surface Cartesian vectors (Angstroms) :

        5.042909   -0.000000    0.000000
        2.521455   -4.367287    0.000000

  Surface cell parameters (Angstroms/Degrees):

  a =       5.0429    alpha =  60.0000
  b =       5.0429

  Initial surface area   =     22.023831 Angs**2

  Initial surface dipole =      0.000000 e.Angs

  Temperature of configuration =  0.000     K 

  Mixed fractional/Cartesian coordinates of surface :

--------------------------------------------------------------------------------
   No.  Atomic       x           y          z         Charge      Occupancy
        Label      (Frac)      (Frac)     (Angs)        (e)         (Frac)  
--------------------------------------------------------------------------------
  Region 1 : 
--------------------------------------------------------------------------------
      1 C     c    0.000000 *  0.000000 *   -6.1763 *   0.00000    1.000000    
      2 C     c    0.000000 *  0.000000 *   -4.6322 *   0.00000    1.000000    
      3 C     c    0.833333 *  0.333333 *   -4.1175 *   0.00000    1.000000    
      4 C     c    0.333333 *  0.833333 *   -4.1175 *   0.00000    1.000000    
      5 C     c    0.833333 *  0.833333 *   -4.1175 *   0.00000    1.000000    
      6 C     c    0.333333 *  0.333333 *   -4.1175 *   0.00000    1.000000    
      7 C     c    0.333333 *  0.333333 *   -2.5734 *   0.00000    1.000000    
      8 C     c    0.833333 *  0.333333 *   -2.5734 *   0.00000    1.000000    
      9 C     c    0.333333 *  0.833333 *   -2.5734 *   0.00000    1.000000    
     10 C     c    0.833333 *  0.833333 *   -2.5734 *   0.00000    1.000000    
     11 C     c    0.166666 *  0.666667 *   -2.0588 *   0.00000    1.000000    
     12 C     c    0.666667 *  0.166667 *   -2.0588 *   0.00000    1.000000    
     13 C     c    0.166667 *  0.166667 *   -2.0588 *   0.00000    1.000000    
     14 C     c    0.166667 *  0.666667 *   -0.5147 *   0.00000    1.000000    
     15 C     c    0.666667 *  0.166667 *   -0.5147 *   0.00000    1.000000    
     16 C     c    0.166667 *  0.166667 *   -0.5147 *   0.00000    1.000000    
--------------------------------------------------------------------------------
  Region 2 :  Rigid translation fixed in xyz
--------------------------------------------------------------------------------
     17 C     c    0.333333    0.333333    -10.2938     0.00000    1.000000    
     18 C     c    0.333333    0.333333     -8.7497     0.00000    1.000000    
     19 C     c    0.166666    0.666667     -8.2350     0.00000    1.000000    
     20 C     c    0.666667    0.166667     -8.2350     0.00000    1.000000    
     21 C     c    0.166667    0.166667     -8.2350     0.00000    1.000000    
     22 C     c    0.666667    0.666667     -8.2350     0.00000    1.000000    
     23 C     c    0.166667    0.666667     -6.6910     0.00000    1.000000    
     24 C     c    0.666667    0.166667     -6.6910     0.00000    1.000000    
     25 C     c    0.166667    0.166667     -6.6910     0.00000    1.000000    
     26 C     c    0.666667    0.666667     -6.6910     0.00000    1.000000    
     27 C     c    0.500000    0.000000     -6.1763     0.00000    1.000000    
     28 C     c    1.000000    0.500000     -6.1763     0.00000    1.000000    
     29 C     c    0.500000    0.500000     -6.1763     0.00000    1.000000    
     30 C     c    0.500000    0.000000     -4.6322     0.00000    1.000000    
     31 C     c    1.000000    0.500000     -4.6322     0.00000    1.000000    
     32 C     c    0.500000    0.500000     -4.6322     0.00000    1.000000    
--------------------------------------------------------------------------------



  Growth Slice : 

  Number of formula units in slice =    6

  Mixed fractional/Cartesian coordinates

--------------------------------------------------------------------------------
   No.  Atomic       x           y          z         Charge      Occupancy
        Label      (Frac)      (Frac)     (Angs)        (e)         (Frac)  
--------------------------------------------------------------------------------
     11 C     c    0.166666    0.666667     -2.0588      0.0000    1.000000
     12 C     c    0.666667    0.166667     -2.0588      0.0000    1.000000
     13 C     c    0.166667    0.166667     -2.0588      0.0000    1.000000
     14 C     c    0.166667    0.666667     -0.5147      0.0000    1.000000
     15 C     c    0.666667    0.166667     -0.5147      0.0000    1.000000
     16 C     c    0.166667    0.166667     -0.5147      0.0000    1.000000
--------------------------------------------------------------------------------



********************************************************************************
*  General input information                                                   *
********************************************************************************

  Species output for all configurations : 

--------------------------------------------------------------------------------
  Species    Type    Atomic    Atomic    Charge       Radii (Angs)     Library
                     Number     Mass       (e)     Cova   Ionic  VDW   Symbol
--------------------------------------------------------------------------------
    C        Core        6      12.01   0.000000   0.770  0.000  1.530          
--------------------------------------------------------------------------------


  Lattice summation method               =    Ewald          (3-D)
                                         =    Parry          (2-D)
                                         =    Saunders et al (1-D)
  Accuracy factor for lattice sums       =   12.000


  Time limit = Infinity

  Maximum range for interatomic potentials =    100000.000000 Angstroms

  Brenner et al 2002 potential to be used with explicit splines for P


********************************************************************************
*  Output for configuration   1 : diamond111                                   *
********************************************************************************


  Components of energy : 

--------------------------------------------------------------------------------
  Interatomic potentials     =           0.00000000 eV
  Brenner potentials         =         -75.82216576 eV
  Monopole - monopole (real) =           0.00000000 eV
  Monopole - monopole (recip)=           0.00000000 eV
  Monopole - monopole (total)=           0.00000000 eV
  Region 1-2 interaction     =         -44.21301921 eV
  Region 2-2 interaction     =         -75.12751554 eV
--------------------------------------------------------------------------------
  Total lattice energy       =        -195.16270050 eV
--------------------------------------------------------------------------------
  Total lattice energy       =          -18830.2173 kJ/(mole unit cells)
--------------------------------------------------------------------------------
  Bulk energy                =          -117.901405 eV    
  Surface energy (region 1)  =            14.529780 J/m**2
--------------------------------------------------------------------------------
  Attachment energy          =         -32.75753089 eV
  Attachment energy/unit     =          -5.45958848 eV
--------------------------------------------------------------------------------


  Number of variables =       48

  Maximum number of calculations  =          1000
  Maximum Hessian update interval =            10
  Maximum step size               =   1.000000000
  Maximum parameter tolerance     =   0.000010000
  Maximum function  tolerance     =   0.000010000
  Maximum gradient  tolerance     =   0.001000000
  Maximum gradient  component     =   0.010000000

  Symmetry not applied to optimisation

  Newton-Raphson optimiser to be used

  BFGS hessian update to be used

  Start of surface optimisation :

  Cycle:      0 Energy:      -195.162701  Gnorm:      0.762884  CPU:    0.156
  ** Hessian calculated **
  Cycle:      1 Energy:      -196.349126  Gnorm:      0.298483  CPU:    0.158
  Cycle:      2 Energy:      -196.592107  Gnorm:      0.124239  CPU:    0.160
  Cycle:      3 Energy:      -196.643465  Gnorm:      0.024045  CPU:    0.162
  Cycle:      4 Energy:      -196.644408  Gnorm:      0.004944  CPU:    0.163
  Cycle:      5 Energy:      -196.644445  Gnorm:      0.000521  CPU:    0.165


  **** Optimisation achieved ****


  Final energy =    -196.64444523 eV
  Final Gnorm  =       0.00004137

  Components of energy : 

--------------------------------------------------------------------------------
  Interatomic potentials     =           0.00000000 eV
  Brenner potentials         =         -77.11103051 eV
  Monopole - monopole (real) =           0.00000000 eV
  Monopole - monopole (recip)=           0.00000000 eV
  Monopole - monopole (total)=           0.00000000 eV
  Region 1-2 interaction     =         -44.43879446 eV
  Region 2-2 interaction     =         -75.09462026 eV
--------------------------------------------------------------------------------
  Total lattice energy       =        -196.64444523 eV
--------------------------------------------------------------------------------
  Total lattice energy       =          -18973.1830 kJ/(mole unit cells)
--------------------------------------------------------------------------------
  Bulk energy                =          -117.901405 eV    
  Surface energy (region 1)  =            13.510032 J/m**2
--------------------------------------------------------------------------------
  Attachment energy          =         -32.51340577 eV
  Attachment energy/unit     =          -5.41890096 eV
--------------------------------------------------------------------------------

  Final fractional/Cartesian coordinates of atoms :

--------------------------------------------------------------------------------
   No.  Atomic        x           y          z          Radius
        Label       (Frac)      (Frac)     (Angs)       (Angs) 
--------------------------------------------------------------------------------
     1  C     c     1.000000    0.000000   -6.190366    0.000000
     2  C     c     1.000000    1.000000   -4.671974    0.000000
     3  C     c     0.833424    0.333152   -4.134188    0.000000
     4  C     c     0.333152    0.833424   -4.134188    0.000000
     5  C     c     0.833424    0.833424   -4.134188    0.000000
     6  C     c     0.333333    0.333333   -4.102076    0.000000
     7  C     c     0.333333    0.333333   -2.546562    0.000000
     8  C     c     0.848818    0.302363   -2.613164    0.000000
     9  C     c     0.302363    0.848818   -2.613164    0.000000
    10  C     c     0.848818    0.848818   -2.613164    0.000000
    11  C     c     0.171030    0.657940   -1.994290    0.000000
    12  C     c     0.657940    0.171030   -1.994290    0.000000
    13  C     c     0.171030    0.171030   -1.994290    0.000000
    14  C     c     0.168592    0.662816   -0.581100    0.000000
    15  C     c     0.662816    0.168592   -0.581099    0.000000
    16  C     c     0.168592    0.168592   -0.581100    0.000000
    17  C     c     0.333333    0.333333  -10.293795    0.000000
    18  C     c     0.333333    0.333333   -8.749725    0.000000
    19  C     c     0.166666    0.666667   -8.235036    0.000000
    20  C     c     0.666667    0.166667   -8.235036    0.000000
    21  C     c     0.166667    0.166667   -8.235036    0.000000
    22  C     c     0.666667    0.666667   -8.235035    0.000000
    23  C     c     0.166667    0.666667   -6.690967    0.000000
    24  C     c     0.666667    0.166667   -6.690967    0.000000
    25  C     c     0.166667    0.166667   -6.690967    0.000000
    26  C     c     0.666667    0.666667   -6.690966    0.000000
    27  C     c     0.500000    0.000000   -6.176276    0.000000
    28  C     c     1.000000    0.500000   -6.176276    0.000000
    29  C     c     0.500000    0.500000   -6.176276    0.000000
    30  C     c     0.500000    0.000000   -4.632207    0.000000
    31  C     c     1.000000    0.500000   -4.632207    0.000000
    32  C     c     0.500000    0.500000   -4.632207    0.000000
--------------------------------------------------------------------------------

  Final internal/Cartesian derivatives :

--------------------------------------------------------------------------------
   No.  Atomic          a             b             z           Radius
        Label          (eV)          (eV)       (eV/Angs)      (eV/Angs)
--------------------------------------------------------------------------------
      1 C     c      -0.000000      0.000000      0.000001      0.000000
      2 C     c       0.000000      0.000000     -0.000265      0.000000
      3 C     c       0.000000     -0.000508      0.000109      0.000000
      4 C     c      -0.000509     -0.000000      0.000109      0.000000
      5 C     c       0.000509      0.000508      0.000109      0.000000
      6 C     c      -0.000000      0.000000      0.000010      0.000000
      7 C     c       0.000000     -0.000001      0.000375      0.000000
      8 C     c      -0.000000      0.000734     -0.000201      0.000000
      9 C     c       0.000736      0.000001     -0.000200      0.000000
     10 C     c      -0.000736     -0.000734     -0.000200      0.000000
     11 C     c       0.000000     -0.000078     -0.000070      0.000000
     12 C     c      -0.000081     -0.000000     -0.000091      0.000000
     13 C     c       0.000080      0.000080     -0.000085      0.000000
     14 C     c       0.000000     -0.000281      0.000074      0.000000
     15 C     c      -0.000280     -0.000000      0.000097      0.000000
     16 C     c       0.000280      0.000280      0.000090      0.000000
     17 C     c       0.000000      0.000000      0.000000      0.000000
     18 C     c       0.000000      0.000000      0.000000      0.000000
     19 C     c       0.000000      0.000000      0.000000      0.000000
     20 C     c       0.000000      0.000000      0.000000      0.000000
     21 C     c       0.000000      0.000000      0.000000      0.000000
     22 C     c       0.000000      0.000000      0.000000      0.000000
     23 C     c       0.000000      0.000000      0.000000      0.000000
     24 C     c       0.000000      0.000000      0.000000      0.000000
     25 C     c       0.000000      0.000000      0.000000      0.000000
     26 C     c       0.000000      0.000000      0.000000      0.000000
     27 C     c       0.000000      0.000000      0.000000      0.000000
     28 C     c       0.000000      0.000000      0.000000      0.000000
     29 C     c       0.000000      0.000000      0.000000      0.000000
     30 C     c       0.000000      0.000000      0.000000      0.000000
     31 C     c       0.000000      0.000000      0.000000      0.000000
     32 C     c       0.000000      0.000000      0.000000      0.000000
--------------------------------------------------------------------------------
  Maximum abs         0.000736      0.000734      0.000375      0.000000
--------------------------------------------------------------------------------


  Time to end of optimisation =       0.1673 seconds


  Peak dynamic memory used =       0.72 MB 


  Timing analysis for GULP :

--------------------------------------------------------------------------------
  Task / Subroutine                                          Time (Seconds)
--------------------------------------------------------------------------------
  Calculation of Brenner energy and derivatives                   0.1618
--------------------------------------------------------------------------------
  Total CPU time                                                  0.1674
--------------------------------------------------------------------------------


  Job Finished at 09:27.53 29th July       2013                               

