********************************************************************************
*                       GENERAL UTILITY LATTICE PROGRAM                        *
*                                 Julian Gale                                  *
*                      Nanochemistry Research Institute                        *
*                           Department of Chemistry                            *
*                    Curtin University, Western Australia                      *
********************************************************************************
* Version = 4.1.0 * Last modified =   7th July 2013                            *
********************************************************************************
*  fit          - perform fitting run                                          *
*  conp         - constant pressure calculation                                *
*  relax        - relax structure during fitting                               *
********************************************************************************
* fit the structure of quartz using relax fitting                              *
* as opposed to simul fitting as used in example2                              *
********************************************************************************


  Job Started  at 09:00.43 29th July       2013                               

  Number of CPUs =     1

  Host name      = M-A0002884.local                        


  Total number of configurations input =   1

********************************************************************************
*  Input for Configuration =   1                                               *
********************************************************************************

  Formula = Si3O6                                                       

  Number of irreducible atoms/shells =       3


  Total number atoms/shells =      15

  Dimensionality = 3               :  Bulk   


  Symmetry :

  Crystal family                   :  Hexagonal   
  Crystal class  (Groth - 1921)    :  Trigonal Trapezohedral               

  Space group (noncentrosymmetric) :  P 31 2 1        

  Patterson group                  :  P -3 m 1 

  Cartesian lattice vectors (Angstroms) :

        4.914730    0.000000    0.000000
       -2.457365    4.256281    0.000000
        0.000000    0.000000    5.406570

  Cell parameters (Angstroms/Degrees):

  a =       4.9147    alpha =  90.0000
  b =       4.9147    beta  =  90.0000
  c =       5.4066    gamma = 120.0000

  Initial cell volume =         113.097184 Angs**3

  Temperature of configuration =  0.000     K 

  Pressure of configuration =         0.000 GPa 

  Fractional coordinates of asymmetric unit :

--------------------------------------------------------------------------------
   No.  Atomic       x           y          z         Charge      Occupancy
        Label      (Frac)      (Frac)     (Frac)        (e)         (Frac)  
--------------------------------------------------------------------------------
      1 Si    c    0.468200 *  0.000000    0.333333     4.00000    1.000000    
      2 O     c    0.413100 *  0.266100 *  0.213100 *   0.86902    1.000000    
      3 O     s    0.431813 *  0.264902 *  0.204106 *  -2.86902    1.000000    
--------------------------------------------------------------------------------


  Constraints : 

--------------------------------------------------------------------------------
  Constraint no.      Unconstrained     Constrained    Coefficient    Offset
                         Variable         Variable
--------------------------------------------------------------------------------
           1              Strain 1        Strain 2       1.00000      0.0000
--------------------------------------------------------------------------------


********************************************************************************
*  General input information                                                   *
********************************************************************************

  Species output for all configurations : 

--------------------------------------------------------------------------------
  Species    Type    Atomic    Atomic    Charge       Radii (Angs)     Library
                     Number     Mass       (e)     Cova   Ionic  VDW   Symbol
--------------------------------------------------------------------------------
    Si       Core       14      28.09   4.000000   1.200  0.000  2.100          
    O        Core        8      16.00   0.869020   0.730  0.000  1.360          
    O        Shell       8       0.00  -2.869020   0.730  0.000  1.360          
--------------------------------------------------------------------------------


  Lattice summation method               =    Ewald          (3-D)
                                         =    Parry          (2-D)
                                         =    Saunders et al (1-D)
  Accuracy factor for lattice sums       =   12.000


  Time limit = Infinity

  Maximum range for interatomic potentials =    100000.000000 Angstroms

  General interatomic potentials :

--------------------------------------------------------------------------------
Atom  Types   Potential         A         B         C         D     Cutoffs(Ang)
  1     2                                                            Min    Max 
--------------------------------------------------------------------------------
Si   c O    s Buckingham    0.128E+04 0.321      10.7      0.00     0.000 12.000
O    s O    s Buckingham    0.228E+05 0.149      27.9      0.00     0.000 12.000
O    c O    s Spring (c-s)   74.9      0.00      0.00      0.00     0.000  0.800
--------------------------------------------------------------------------------

  General Three-body potentials :

  Harmonic form:

--------------------------------------------------------------------------------
Atom    Atom    Atom           Force Constants            Theta     Cutoffs  
  1       2       3     (eVrad**-2/eVrad**-3/eVrad**-4)   (deg)  1-2  1-3  2-3
--------------------------------------------------------------------------------
Si    c O     s O     s  2.097        0.0000    0.0000   109.470 0.00 0.00 0.00
                                                                 1.80 1.80 3.50
--------------------------------------------------------------------------------


  Number of variables   =    1
  Number of observables =   13

--------------------------------------------------------------------------------
   Observable no.  Type           Observable    Weight       Reference  Confign 
--------------------------------------------------------------------------------
          1        Elastic Const    86.830000        0.0100    1  1        1
          2        Elastic Const   104.980000        0.0100    3  3        1
          3        Elastic Const    58.260000        0.0100    4  4        1
          4        Elastic Const    39.870000        0.0100    6  6        1
          5        Static Di C       4.520000        1.0000    1  1        1
          6        Static Di C       4.640000        1.0000    3  3        1
          7        High Freq DiC     2.400000        1.0000    1  1        1
          8        Structure         4.914730     1000.0000    a           1
          9        Structure         5.406570     1000.0000    c           1
         10        Structure         0.468200    10000.0000    1 x         1
         11        Structure         0.413100    10000.0000    2 x         1
         12        Structure         0.266100    10000.0000    2 y         1
         13        Structure         0.213100    10000.0000    2 z         1
--------------------------------------------------------------------------------

  Variables :

--------------------------------------------------------------------------------
     Parameter No.       Parameter Value          Parameter Type  Species
--------------------------------------------------------------------------------
             1               1283.037674          Buckingham A   
--------------------------------------------------------------------------------

  Symmetry constraints used for fitting
  First derivatives of residuals to be used in fitting

  Maximum no. of cycles   =       5000
  Maximum step size       =  1000.0000
  Tolerance on parameters =  0.0000100
  Tolerance on function   =  0.0000100
  Tolerance on gradient   =  0.0001000
  Differencing interval   =  0.0001000

  Start of fitting :

  Cycle:      0  Sum sqs:      17.022899  Gnorm:    963.347307  CPU:    0.064
  ** Hessian calculated **
  Cycle:      1  Sum sqs:       3.609340  Gnorm:      8.977112  CPU:    0.213
  Cycle:      2  Sum sqs:       3.608067  Gnorm:      1.098781  CPU:    0.400
  Cycle:      3  Sum sqs:       3.608062  Gnorm:      0.978362  CPU:    0.592


  **** Fit completed successfully ****


  Final sum of squares =             3.608062

  Final gradient norm  =             0.978362

  Final values of parameters :

--------------------------------------------------------------------------------
 Parameter No.    Parameter        Parameter      Parameter Type  Species
                  Original         Final                                 
--------------------------------------------------------------------------------
         1           1283.037674      1319.589622 Buckingham A   
--------------------------------------------------------------------------------


  Final values of numerical parameter gradients :

--------------------------------------------------------------------------------
     Parameter No.       Parameter Gradient      Parameter Type  Species
--------------------------------------------------------------------------------
             1                  0.978362          Buckingham A   
--------------------------------------------------------------------------------


  Final values of residuals :

--------------------------------------------------------------------------------
   Observable no.  Type            Observable   Calculated    Residual  Error(%)
--------------------------------------------------------------------------------
          1        Elastic Const     86.83000     89.75468      0.08554    3.368
          2        Elastic Const    104.98000    108.56141      0.12826    3.412
          3        Elastic Const     58.26000     47.39735      1.17997  -18.645
          4        Elastic Const     39.87000     37.35858      0.06307   -6.299
          5        Static Di C        4.52000      4.40126      0.01410   -2.627
          6        Static Di C        4.64000      4.67915      0.00153    0.844
          7        High Freq DiC      2.40000      2.04646      0.12499  -14.731
          8        Structure          4.91473      4.90894      0.03352   -0.118
          9        Structure          5.40657      5.42224      0.24552    0.290
         10        Structure          0.46820      0.46554      0.07094   -0.569
         11        Structure          0.41310      0.41030      0.07852   -0.678
         12        Structure          0.26610      0.27545      0.87399    3.513
         13        Structure          0.21310      0.22151      0.70810    3.949
--------------------------------------------------------------------------------

  Comparison of initial and final observables :

--------------------------------------------------------------------------------
   Observable no.  Type            Observable   Initial       Final             
--------------------------------------------------------------------------------
          1        Elastic Const     86.83000     94.73069     89.75468
          2        Elastic Const    104.98000    116.31452    108.56141
          3        Elastic Const     58.26000     50.05915     47.39735
          4        Elastic Const     39.87000     38.08303     37.35858
          5        Static Di C        4.52000      4.75366      4.40126
          6        Static Di C        4.64000      5.02658      4.67915
          7        High Freq DiC      2.40000      2.11975      2.04646
          8        Structure          4.91473      4.83250      4.90894
          9        Structure          5.40657      5.34303      5.42224
         10        Structure          0.46820      0.46366      0.46554
         11        Structure          0.41310      0.40816      0.41030
         12        Structure          0.26610      0.27870      0.27545
         13        Structure          0.21310      0.22488      0.22151
--------------------------------------------------------------------------------

  Maximum range for interatomic potentials =    100000.000000 Angstroms

  General interatomic potentials :

--------------------------------------------------------------------------------
Atom  Types   Potential         A         B         C         D     Cutoffs(Ang)
  1     2                                                            Min    Max 
--------------------------------------------------------------------------------
Si   c O    s Buckingham    0.132E+04 0.321      10.7      0.00     0.000 12.000
O    s O    s Buckingham    0.228E+05 0.149      27.9      0.00     0.000 12.000
O    c O    s Spring (c-s)   74.9      0.00      0.00      0.00     0.000  0.800
--------------------------------------------------------------------------------

  General Three-body potentials :

  Harmonic form:

--------------------------------------------------------------------------------
Atom    Atom    Atom           Force Constants            Theta     Cutoffs  
  1       2       3     (eVrad**-2/eVrad**-3/eVrad**-4)   (deg)  1-2  1-3  2-3
--------------------------------------------------------------------------------
Si    c O     s O     s  2.097        0.0000    0.0000   109.470 0.00 0.00 0.00
                                                                 1.80 1.80 3.50
--------------------------------------------------------------------------------



  Total time to end of fitting =       0.6135 seconds

********************************************************************************
*  Output for configuration   1                                                *
********************************************************************************


  Components of energy : 

--------------------------------------------------------------------------------
  Interatomic potentials     =         107.40400874 eV
  Three-body potentials      =           0.05967375 eV
  Monopole - monopole (real) =        -111.26563177 eV
  Monopole - monopole (recip)=        -379.17637423 eV
  Monopole - monopole (total)=        -490.44200600 eV
--------------------------------------------------------------------------------
  Total lattice energy       =        -382.97832351 eV
--------------------------------------------------------------------------------
  Total lattice energy       =          -36951.5539 kJ/(mole unit cells)
--------------------------------------------------------------------------------

  Peak dynamic memory used =       0.56 MB 


  Timing analysis for GULP :

--------------------------------------------------------------------------------
  Task / Subroutine                                          Time (Seconds)
--------------------------------------------------------------------------------
  Calculation of reciprocal space energy and derivatives          0.0148
  Calculation of reciprocal space energy using symmetry           0.0539
  Calculation of real space energy and derivatives                0.0990
  Calculation of real space energy using symmetry                 0.3971
  Calculation of three-body energy and derivatives                0.0338
  Calculation of matrix inversion                                 0.0002
  Sum of squares for fitting                                      0.4921
  Symmetry generation of equivalent positions                     0.0019
  Global summation overhead                                       0.0004
--------------------------------------------------------------------------------
  Total CPU time                                                  0.6144
--------------------------------------------------------------------------------


  Dump file written as example14.grs                                           


  Job Finished at 09:00.44 29th July       2013                               

