********************************************************************************
*                       GENERAL UTILITY LATTICE PROGRAM                        *
*                                 Julian Gale                                  *
*                      Nanochemistry Research Institute                        *
*                           Department of Chemistry                            *
*                    Curtin University, Western Australia                      *
********************************************************************************
* Version = 4.1.0 * Last modified =   7th July 2013                            *
********************************************************************************
*  optimise     - perform optimisation run                                     *
*  distance     - calculate distances                                          *
********************************************************************************
* Sodium ion migration in quartz : uses the translate option                   *
* to perform 2-D optimisation for sodium at intervals along                    *
* the channel within quartz structure                                          *
********************************************************************************


  Job Started  at 09:00.41 29th July       2013                               

  Number of CPUs =     1

  Host name      = M-A0002884.local                        


  Total number of configurations input =   1

********************************************************************************
*  Input for Configuration =   1                                               *
********************************************************************************

  Formula = Si2AlNaO6                                                   

  Number of irreducible atoms/shells =      16


  Total number atoms/shells =      16

  Dimensionality = 3               :  Bulk   



  Cartesian lattice vectors (Angstroms) :

        4.914730    0.000000    0.000000
       -2.457365    4.256281    0.000000
        0.000000    0.000000    5.406570

  Cell parameters (Angstroms/Degrees):

  a =       4.9147    alpha =  90.0000
  b =       4.9147    beta  =  90.0000
  c =       5.4066    gamma = 120.0000

  Initial cell volume =         113.097184 Angs**3

  Temperature of configuration =  0.000     K 

  Pressure of configuration =         0.000 GPa 

  Fractional coordinates of asymmetric unit :

--------------------------------------------------------------------------------
   No.  Atomic       x           y          z         Charge      Occupancy
        Label      (Frac)      (Frac)     (Frac)        (e)         (Frac)  
--------------------------------------------------------------------------------
      1 Si    c    0.000000    0.468200    0.666666     4.00000    1.000000    
      2 Si    c    0.562283 *  0.553474 *  0.985986 *   4.00000    1.000000    
      3 Al    c    0.445925 *  0.991213 *  0.348165 *   3.00000    1.000000    
      4 Na    c    0.996987 *  0.272679 *  0.172946     1.00000    1.000000    
      5 O     c    0.442025 *  0.289142 *  0.194695 *   0.86902    1.000000    
      6 O     c    0.727571 *  0.131612 *  0.581260 *   0.86902    1.000000    
      7 O     c    0.900494 *  0.614677 *  0.895918 *   0.86902    1.000000    
      8 O     c    0.089785 *  0.698420 *  0.439177 *   0.86902    1.000000    
      9 O     c    0.574325 *  0.846687 *  0.110388 *   0.86902    1.000000    
     10 O     c    0.293304 *  0.427050 *  0.765705 *   0.86902    1.000000    
     11 O     s    0.451160 *  0.296281 *  0.182836 *  -2.86902    1.000000    
     12 O     s    0.741396 *  0.160744 *  0.575279 *  -2.86902    1.000000    
     13 O     s    0.874954 *  0.591869 *  0.883898 *  -2.86902    1.000000    
     14 O     s    0.104617 *  0.690857 *  0.457113 *  -2.86902    1.000000    
     15 O     s    0.569630 *  0.824747 *  0.110755 *  -2.86902    1.000000    
     16 O     s    0.289597 *  0.442377 *  0.777587 *  -2.86902    1.000000    
--------------------------------------------------------------------------------



  Distance calculation :


  Cutoff for distances  =      2.500000 Angstroms

--------------------------------------------------------------------------------
  Asymmetric unit site  Full lattice sites    No.  Distance      No.  Distance
      No.   At.No.            At.No.                (Angs)             (Angs) 
--------------------------------------------------------------------------------
       1   Si    core        O     core         1    1.5775        1    1.5898
                                                1    1.6266        1    1.6423
                             O     shell        1    1.4774        1    1.4907
                                                1    1.5812        1    1.6069
--------------------------------------------------------------------------------
       2   Si    core        O     core         1    1.5644        1    1.5945
                                                1    1.6095        1    1.6525
                             O     shell        1    1.4784        1    1.5292
                                                1    1.5530        1    1.6223
--------------------------------------------------------------------------------
       3   Al    core        O     core         1    1.6905        1    1.6914
                                                1    1.7331        1    1.7393
                             O     shell        1    1.6922        1    1.7347
                                                1    1.7609        1    1.7844
--------------------------------------------------------------------------------
       4   Na    core        O     core         1    2.1127        1    2.1511
                                                1    2.3882        1    2.4679
                                                1    2.4878
                             O     shell        1    2.1771        1    2.1788
                                                1    2.4036        1    2.4334
                                                1    2.4766        1    2.4907
--------------------------------------------------------------------------------
       5   O     core        Na    core         1    2.1511
                             Al    core         1    1.6914
                             Si    core         1    1.5945
                             O     shell        1    0.0760        1    2.4244
--------------------------------------------------------------------------------
       6   O     core        Na    core         1    2.4878
                             Al    core         1    1.7393
                             Si    core         1    1.5898
                             O     shell        1    0.1282
--------------------------------------------------------------------------------
       7   O     core        Na    core         1    2.4679
                             Si    core         1    1.6095        1    1.6266
                             O     shell        1    0.1359
--------------------------------------------------------------------------------
       8   O     core        Na    core         1    2.3882
                             Al    core         1    1.6905
                             Si    core         1    1.5775
                             O     shell        1    0.1371        1    2.4355
--------------------------------------------------------------------------------
       9   O     core        Na    core         1    2.1127
                             Al    core         1    1.7331
                             Si    core         1    1.5644
                             O     shell        1    0.0984        1    2.4900
--------------------------------------------------------------------------------
      10   O     core        Si    core         1    1.6423        1    1.6525
                             O     shell        1    0.1073
--------------------------------------------------------------------------------
      11   O     shell       Na    core         1    2.1771
                             Al    core         1    1.7347
                             Si    core         1    1.5292
                             O     core         1    0.0760        1    2.4900
                             O     shell        1    2.3926        1    2.4566
--------------------------------------------------------------------------------
      12   O     shell       Na    core         1    2.4334
                             Al    core         1    1.7609
                             Si    core         1    1.4907
                             O     core         1    0.1282        1    2.4355
                             O     shell        1    2.3941
--------------------------------------------------------------------------------
      13   O     shell       Na    core         1    2.4907
                             Si    core         1    1.5530        1    1.5812
                             O     core         1    0.1359
                             O     shell        1    2.4566
--------------------------------------------------------------------------------
      14   O     shell       Na    core         1    2.4036
                             Al    core         1    1.6922
                             Si    core         1    1.4774
                             O     core         1    0.1371
                             O     shell        1    2.3941
--------------------------------------------------------------------------------
      15   O     shell       Na    core         1    2.1788
                             Al    core         1    1.7844
                             Si    core         1    1.4784
                             O     core         1    0.0984        1    2.4244
                             O     shell        1    2.3926        1    2.4666
--------------------------------------------------------------------------------
      16   O     shell       Na    core         1    2.4766
                             Si    core         1    1.6069        1    1.6223
                             O     core         1    0.1073
                             O     shell        1    2.4666
--------------------------------------------------------------------------------



********************************************************************************
*  General input information                                                   *
********************************************************************************

  Species output for all configurations : 

--------------------------------------------------------------------------------
  Species    Type    Atomic    Atomic    Charge       Radii (Angs)     Library
                     Number     Mass       (e)     Cova   Ionic  VDW   Symbol
--------------------------------------------------------------------------------
    Na       Core       11      22.99   1.000000   0.970  0.000  2.300          
    Al       Core       13      26.98   3.000000   1.350  0.000  2.050          
    Si       Core       14      28.09   4.000000   1.200  0.000  2.100          
    O        Core        8      16.00   0.869020   0.730  0.000  1.360          
    O        Shell       8       0.00  -2.869020   0.730  0.000  1.360          
--------------------------------------------------------------------------------


  Lattice summation method               =    Ewald          (3-D)
                                         =    Parry          (2-D)
                                         =    Saunders et al (1-D)
  Accuracy factor for lattice sums       =   12.000


  Time limit = Infinity

  Maximum range for interatomic potentials =    100000.000000 Angstroms

  C6 terms to be calculated in real and reciprocal space 

  General interatomic potentials :

--------------------------------------------------------------------------------
Atom  Types   Potential         A         B         C         D     Cutoffs(Ang)
  1     2                                                            Min    Max 
--------------------------------------------------------------------------------
Na   c O    s Buckingham    0.123E+04 0.307      0.00      0.00     0.000 10.000
Al   c O    s Buckingham    0.146E+04 0.299      0.00      0.00     0.000 10.000
Si   c O    s Buckingham    0.128E+04 0.321      10.7      0.00     0.000 12.000
O    s O    s Buckingham    0.228E+05 0.149      27.9      0.00     0.000 12.000
O    c O    s Spring (c-s)   74.9      0.00      0.00      0.00     0.000  0.800
--------------------------------------------------------------------------------

  General Three-body potentials :

  Harmonic form:

--------------------------------------------------------------------------------
Atom    Atom    Atom           Force Constants            Theta     Cutoffs  
  1       2       3     (eVrad**-2/eVrad**-3/eVrad**-4)   (deg)  1-2  1-3  2-3
--------------------------------------------------------------------------------
Si    c O     s O     s  2.097        0.0000    0.0000   109.470 0.00 0.00 0.00
                                                                 1.90 1.90 3.50
Al    c O     s O     s  2.097        0.0000    0.0000   109.470 0.00 0.00 0.00
                                                                 1.90 1.90 3.50
--------------------------------------------------------------------------------

********************************************************************************
*  Output for configuration   1                                                *
********************************************************************************


  Repeat calculation for  11 points

  Translation vector :

  x =     0.000000  y =     0.000000  z =     1.000000


################################################################################
#  Output for point     0                                                      #
################################################################################


  Components of energy : 

--------------------------------------------------------------------------------
  Interatomic potentials     =         109.56122625 eV
  Three-body potentials      =           0.13828231 eV
  Monopole - monopole (real) =         -91.76705573 eV
  Monopole - monopole (recip)=        -358.91555867 eV
  Monopole - monopole (total)=        -450.68261440 eV
  Dispersion (real+recip)    =          -8.93508294 eV
--------------------------------------------------------------------------------
  Total lattice energy       =        -349.91818878 eV
--------------------------------------------------------------------------------
  Total lattice energy       =          -33761.7562 kJ/(mole unit cells)
--------------------------------------------------------------------------------


  Number of variables =       44

  Maximum number of calculations  =          1000
  Maximum Hessian update interval =            10
  Maximum step size               =   1.000000000
  Maximum parameter tolerance     =   0.000010000
  Maximum function  tolerance     =   0.000010000
  Maximum gradient  tolerance     =   0.001000000
  Maximum gradient  component     =   0.010000000

  Symmetry not applied to optimisation

  Newton-Raphson optimiser to be used

  BFGS hessian update to be used

  Minimiser to switch to RFO
  When gradient norm is less than     0.100000

  Dumpfile to be written after every    2 cycles

  Start of bulk optimisation :

  Cycle:      0 Energy:      -349.918189  Gnorm:      0.000190  CPU:    0.012


  **** Optimisation achieved ****


  Final energy =    -349.91818878 eV
  Final Gnorm  =       0.00019022

  Components of energy : 

--------------------------------------------------------------------------------
  Interatomic potentials     =         109.56122625 eV
  Three-body potentials      =           0.13828231 eV
  Monopole - monopole (real) =         -91.76705573 eV
  Monopole - monopole (recip)=        -358.91555867 eV
  Monopole - monopole (total)=        -450.68261440 eV
  Dispersion (real+recip)    =          -8.93508294 eV
--------------------------------------------------------------------------------
  Total lattice energy       =        -349.91818878 eV
--------------------------------------------------------------------------------
  Total lattice energy       =          -33761.7562 kJ/(mole unit cells)
--------------------------------------------------------------------------------

  Final fractional coordinates of atoms :

--------------------------------------------------------------------------------
   No.  Atomic        x           y          z          Radius
        Label       (Frac)      (Frac)     (Frac)       (Angs) 
--------------------------------------------------------------------------------
     1  Si    c     0.000000    0.468200    0.666666    0.000000
     2  Si    c     0.562283    0.553474    0.985986    0.000000
     3  Al    c     0.445925    0.991213    0.348165    0.000000
     4  Na    c     0.996987    0.272679    0.172946    0.000000
     5  O     c     0.442025    0.289142    0.194695    0.000000
     6  O     c     0.727571    0.131612    0.581260    0.000000
     7  O     c     0.900494    0.614677    0.895918    0.000000
     8  O     c     0.089785    0.698420    0.439177    0.000000
     9  O     c     0.574325    0.846687    0.110388    0.000000
    10  O     c     0.293304    0.427050    0.765705    0.000000
    11  O     s     0.451160    0.296281    0.182836    0.000000
    12  O     s     0.741396    0.160744    0.575279    0.000000
    13  O     s     0.874954    0.591869    0.883898    0.000000
    14  O     s     0.104617    0.690857    0.457113    0.000000
    15  O     s     0.569630    0.824747    0.110755    0.000000
    16  O     s     0.289597    0.442377    0.777587    0.000000
--------------------------------------------------------------------------------

  Final Cartesian lattice vectors (Angstroms) :

        4.914730    0.000000    0.000000
       -2.457365    4.256281    0.000000
        0.000000    0.000000    5.406570


  Final cell parameters and derivatives :

--------------------------------------------------------------------------------
       a            4.914730 Angstrom     dE/de1(xx)     0.000000 eV/strain
       b            4.914730 Angstrom     dE/de2(yy)     0.000000 eV/strain
       c            5.406570 Angstrom     dE/de3(zz)     0.000000 eV/strain
       alpha       90.000000 Degrees      dE/de4(yz)     0.000000 eV/strain
       beta        90.000000 Degrees      dE/de5(xz)     0.000000 eV/strain
       gamma      120.000000 Degrees      dE/de6(xy)     0.000000 eV/strain
--------------------------------------------------------------------------------

  Primitive cell volume =           113.097184 Angs**3

  Density of cell =      2.968096 g/cm**3

  Non-primitive cell volume =           113.097184 Angs**3


  Final internal derivatives :

--------------------------------------------------------------------------------
   No.  Atomic          a             b             c           Radius
        Label          (eV)          (eV)          (eV)        (eV/Angs)
--------------------------------------------------------------------------------
      1 Si    c       0.000000      0.000000      0.000000      0.000000
      2 Si    c       0.000346     -0.001002      0.001243      0.000000
      3 Al    c      -0.002940      0.002587     -0.000430      0.000000
      4 Na    c      -0.000024     -0.000025      0.000000      0.000000
      5 O     c       0.001510     -0.002721      0.000543      0.000000
      6 O     c       0.000013      0.000483      0.000896      0.000000
      7 O     c      -0.000559      0.000513      0.000099      0.000000
      8 O     c       0.000353      0.000599     -0.001583      0.000000
      9 O     c       0.000188      0.000815      0.001485      0.000000
     10 O     c      -0.000298     -0.000236      0.001261      0.000000
     11 O     s      -0.001070      0.001774      0.001106      0.000000
     12 O     s       0.000730     -0.000876     -0.000306      0.000000
     13 O     s       0.000360      0.000133     -0.001095      0.000000
     14 O     s       0.000092     -0.000592      0.001900      0.000000
     15 O     s       0.001293     -0.001813     -0.002888      0.000000
     16 O     s       0.000569      0.000100     -0.002602      0.000000
--------------------------------------------------------------------------------
  Maximum abs         0.002940      0.002721      0.002888      0.000000
--------------------------------------------------------------------------------


  Distance calculation :


  Cutoff for distances  =      2.500000 Angstroms

--------------------------------------------------------------------------------
  Asymmetric unit site  Full lattice sites    No.  Distance      No.  Distance
      No.   At.No.            At.No.                (Angs)             (Angs) 
--------------------------------------------------------------------------------
       1   Si    core        O     core         1    1.5775        1    1.5898
                                                1    1.6266        1    1.6423
                             O     shell        1    1.4774        1    1.4907
                                                1    1.5812        1    1.6069
--------------------------------------------------------------------------------
       2   Si    core        O     core         1    1.5644        1    1.5945
                                                1    1.6095        1    1.6525
                             O     shell        1    1.4784        1    1.5292
                                                1    1.5530        1    1.6223
--------------------------------------------------------------------------------
       3   Al    core        O     core         1    1.6905        1    1.6914
                                                1    1.7331        1    1.7393
                             O     shell        1    1.6922        1    1.7347
                                                1    1.7609        1    1.7844
--------------------------------------------------------------------------------
       4   Na    core        O     core         1    2.1127        1    2.1511
                                                1    2.3882        1    2.4679
                                                1    2.4878
                             O     shell        1    2.1771        1    2.1788
                                                1    2.4036        1    2.4334
                                                1    2.4766        1    2.4907
--------------------------------------------------------------------------------
       5   O     core        Na    core         1    2.1511
                             Al    core         1    1.6914
                             Si    core         1    1.5945
                             O     shell        1    0.0760        1    2.4244
--------------------------------------------------------------------------------
       6   O     core        Na    core         1    2.4878
                             Al    core         1    1.7393
                             Si    core         1    1.5898
                             O     shell        1    0.1282
--------------------------------------------------------------------------------
       7   O     core        Na    core         1    2.4679
                             Si    core         1    1.6095        1    1.6266
                             O     shell        1    0.1359
--------------------------------------------------------------------------------
       8   O     core        Na    core         1    2.3882
                             Al    core         1    1.6905
                             Si    core         1    1.5775
                             O     shell        1    0.1371        1    2.4355
--------------------------------------------------------------------------------
       9   O     core        Na    core         1    2.1127
                             Al    core         1    1.7331
                             Si    core         1    1.5644
                             O     shell        1    0.0984        1    2.4900
--------------------------------------------------------------------------------
      10   O     core        Si    core         1    1.6423        1    1.6525
                             O     shell        1    0.1073
--------------------------------------------------------------------------------
      11   O     shell       Na    core         1    2.1771
                             Al    core         1    1.7347
                             Si    core         1    1.5292
                             O     core         1    0.0760        1    2.4900
                             O     shell        1    2.3926        1    2.4566
--------------------------------------------------------------------------------
      12   O     shell       Na    core         1    2.4334
                             Al    core         1    1.7609
                             Si    core         1    1.4907
                             O     core         1    0.1282        1    2.4355
                             O     shell        1    2.3941
--------------------------------------------------------------------------------
      13   O     shell       Na    core         1    2.4907
                             Si    core         1    1.5530        1    1.5812
                             O     core         1    0.1359
                             O     shell        1    2.4566
--------------------------------------------------------------------------------
      14   O     shell       Na    core         1    2.4036
                             Al    core         1    1.6922
                             Si    core         1    1.4774
                             O     core         1    0.1371
                             O     shell        1    2.3941
--------------------------------------------------------------------------------
      15   O     shell       Na    core         1    2.1788
                             Al    core         1    1.7844
                             Si    core         1    1.4784
                             O     core         1    0.0984        1    2.4244
                             O     shell        1    2.3926        1    2.4666
--------------------------------------------------------------------------------
      16   O     shell       Na    core         1    2.4766
                             Si    core         1    1.6069        1    1.6223
                             O     core         1    0.1073
                             O     shell        1    2.4666
--------------------------------------------------------------------------------



  Time to end of optimisation =       0.0167 seconds


################################################################################
#  Output for point     1                                                      #
################################################################################


  Components of energy : 

--------------------------------------------------------------------------------
  Interatomic potentials     =         110.84455534 eV
  Three-body potentials      =           0.13828231 eV
  Monopole - monopole (real) =         -91.68982305 eV
  Monopole - monopole (recip)=        -358.84312999 eV
  Monopole - monopole (total)=        -450.53295304 eV
  Dispersion (real+recip)    =          -8.93508294 eV
--------------------------------------------------------------------------------
  Total lattice energy       =        -348.48519834 eV
--------------------------------------------------------------------------------
  Total lattice energy       =          -33623.4946 kJ/(mole unit cells)
--------------------------------------------------------------------------------


  Number of variables =       44

  Maximum number of calculations  =          1000
  Maximum Hessian update interval =            10
  Maximum step size               =   1.000000000
  Maximum parameter tolerance     =   0.000010000
  Maximum function  tolerance     =   0.000010000
  Maximum gradient  tolerance     =   0.001000000
  Maximum gradient  component     =   0.010000000

  Symmetry not applied to optimisation

  Newton-Raphson optimiser to be used

  BFGS hessian update to be used

  Minimiser to switch to RFO
  When gradient norm is less than     0.100000

  Dumpfile to be written after every    2 cycles

  Start of bulk optimisation :

  Cycle:      0 Energy:      -348.485198  Gnorm:      0.687658  CPU:    0.023
  ** Hessian calculated **
  Cycle:      1 Energy:      -349.369817  Gnorm:      0.276513  CPU:    0.031
  Cycle:      2 Energy:      -349.481771  Gnorm:      0.105449  CPU:    0.042
  Cycle:      3 Energy:      -349.507484  Gnorm:      0.056482  CPU:    0.051
  ** Hessian has required structure
  Cycle:      4 Energy:      -349.508345  Gnorm:      0.044360  CPU:    0.061
  ** Hessian has required structure
  Cycle:      5 Energy:      -349.509824  Gnorm:      0.058426  CPU:    0.071
  ** Hessian has required structure
  Cycle:      6 Energy:      -349.511149  Gnorm:      0.044835  CPU:    0.080
  ** Hessian has required structure
  Cycle:      7 Energy:      -349.511850  Gnorm:      0.034518  CPU:    0.090
  ** Hessian has required structure
  Cycle:      8 Energy:      -349.512242  Gnorm:      0.041438  CPU:    0.100
  ** Hessian has required structure
  Cycle:      9 Energy:      -349.513213  Gnorm:      0.039727  CPU:    0.109
  ** Hessian has required structure
  Cycle:     10 Energy:      -349.514632  Gnorm:      0.059102  CPU:    0.119
  ** Hessian has wrong structure
  ** Imaginary eigenvectors =   1
  Cycle:     11 Energy:      -349.520665  Gnorm:      0.059126  CPU:    0.150
  ** Hessian has wrong structure
  ** Imaginary eigenvectors =   1
  ** Hessian has wrong structure
  ** Imaginary eigenvectors =   1
  Cycle:     12 Energy:      -349.526181  Gnorm:      0.063040  CPU:    0.188
  ** Hessian has required structure
  ** Hessian has required structure
  Cycle:     13 Energy:      -349.555793  Gnorm:      0.092342  CPU:    0.204
  ** Hessian has required structure
  Cycle:     14 Energy:      -349.575002  Gnorm:      0.108577  CPU:    0.214
  ** Hessian has required structure
  Cycle:     15 Energy:      -349.602602  Gnorm:      0.094944  CPU:    0.226
  ** Hessian has required structure
  Cycle:     16 Energy:      -349.628053  Gnorm:      0.069779  CPU:    0.237
  ** Hessian has required structure
  Cycle:     17 Energy:      -349.631885  Gnorm:      0.024430  CPU:    0.247
  ** Hessian has required structure
  Cycle:     18 Energy:      -349.632863  Gnorm:      0.018828  CPU:    0.257
  ** Hessian has required structure
  Cycle:     19 Energy:      -349.633165  Gnorm:      0.004666  CPU:    0.266
  ** Hessian has required structure
  Cycle:     20 Energy:      -349.633194  Gnorm:      0.001619  CPU:    0.276
  ** Hessian has required structure


  **** Optimisation achieved ****


  Final energy =    -349.63319721 eV
  Final Gnorm  =       0.00039094

  Components of energy : 

--------------------------------------------------------------------------------
  Interatomic potentials     =         109.48184040 eV
  Three-body potentials      =           0.10933788 eV
  Monopole - monopole (real) =         -91.43734470 eV
  Monopole - monopole (recip)=        -358.96784265 eV
  Monopole - monopole (total)=        -450.40518735 eV
  Dispersion (real+recip)    =          -8.81918814 eV
--------------------------------------------------------------------------------
  Total lattice energy       =        -349.63319721 eV
--------------------------------------------------------------------------------
  Total lattice energy       =          -33734.2589 kJ/(mole unit cells)
--------------------------------------------------------------------------------

  Final fractional coordinates of atoms :

--------------------------------------------------------------------------------
   No.  Atomic        x           y          z          Radius
        Label       (Frac)      (Frac)     (Frac)       (Angs) 
--------------------------------------------------------------------------------
     1  Si    c     0.000000    0.468200    0.666666    0.000000
     2  Si    c     0.532290    0.542278    0.974983    0.000000
     3  Al    c     0.479091    0.009212    0.327045    0.000000
     4  Na    c     0.986878    0.011121    0.272946    0.000000
     5  O     c     0.465192    0.332285    0.217182    0.000000
     6  O     c     0.742676    0.135183    0.563588    0.000000
     7  O     c     0.872126    0.612499    0.875114    0.000000
     8  O     c     0.137382    0.708770    0.443247    0.000000
     9  O     c     0.564441    0.867079    0.063518    0.000000
    10  O     c     0.255943    0.379610    0.774521    0.000000
    11  O     s     0.467421    0.330830    0.198936    0.000000
    12  O     s     0.755036    0.162461    0.556171    0.000000
    13  O     s     0.851051    0.590799    0.864589    0.000000
    14  O     s     0.143494    0.705028    0.458473    0.000000
    15  O     s     0.560151    0.842742    0.072934    0.000000
    16  O     s     0.260997    0.406070    0.785541    0.000000
--------------------------------------------------------------------------------

  Final Cartesian lattice vectors (Angstroms) :

        4.914730    0.000000    0.000000
       -2.457365    4.256281    0.000000
        0.000000    0.000000    5.406570


  Final cell parameters and derivatives :

--------------------------------------------------------------------------------
       a            4.914730 Angstrom     dE/de1(xx)     0.000000 eV/strain
       b            4.914730 Angstrom     dE/de2(yy)     0.000000 eV/strain
       c            5.406570 Angstrom     dE/de3(zz)     0.000000 eV/strain
       alpha       90.000000 Degrees      dE/de4(yz)     0.000000 eV/strain
       beta        90.000000 Degrees      dE/de5(xz)     0.000000 eV/strain
       gamma      120.000000 Degrees      dE/de6(xy)     0.000000 eV/strain
--------------------------------------------------------------------------------

  Primitive cell volume =           113.097184 Angs**3

  Density of cell =      2.968096 g/cm**3

  Non-primitive cell volume =           113.097184 Angs**3


  Final internal derivatives :

--------------------------------------------------------------------------------
   No.  Atomic          a             b             c           Radius
        Label          (eV)          (eV)          (eV)        (eV/Angs)
--------------------------------------------------------------------------------
      1 Si    c       0.000000      0.000000      0.000000      0.000000
      2 Si    c      -0.000786      0.000257      0.004763      0.000000
      3 Al    c      -0.001760      0.000774     -0.005955      0.000000
      4 Na    c      -0.000100      0.000688      0.000000      0.000000
      5 O     c       0.001795     -0.002732     -0.002393      0.000000
      6 O     c       0.002924     -0.000753      0.005644      0.000000
      7 O     c      -0.002906      0.001386      0.004739      0.000000
      8 O     c      -0.000405     -0.000197      0.000694      0.000000
      9 O     c      -0.003411      0.002944      0.004368      0.000000
     10 O     c       0.000701     -0.000108     -0.000968      0.000000
     11 O     s      -0.001318      0.000130      0.002450      0.000000
     12 O     s       0.000455     -0.000847     -0.002711      0.000000
     13 O     s       0.003638     -0.000653     -0.005977      0.000000
     14 O     s       0.001300     -0.002177      0.001391      0.000000
     15 O     s       0.000252      0.002276     -0.003618      0.000000
     16 O     s      -0.002136      0.001765     -0.001175      0.000000
--------------------------------------------------------------------------------
  Maximum abs         0.003638      0.002944      0.005977      0.000000
--------------------------------------------------------------------------------


  Distance calculation :


  Cutoff for distances  =      2.500000 Angstroms

--------------------------------------------------------------------------------
  Asymmetric unit site  Full lattice sites    No.  Distance      No.  Distance
      No.   At.No.            At.No.                (Angs)             (Angs) 
--------------------------------------------------------------------------------
       1   Si    core        O     core         1    1.5857        1    1.5871
                                                1    1.6167        1    1.6308
                             O     shell        1    1.5017        1    1.5160
                                                1    1.5764        1    1.5948
--------------------------------------------------------------------------------
       2   Si    core        O     core         1    1.5963        1    1.5969
                                                1    1.6039        1    1.6198
                             O     shell        1    1.5092        1    1.5220
                                                1    1.5435        1    1.5792
--------------------------------------------------------------------------------
       3   Al    core        Na    core         1    2.4414
                             O     core         1    1.7015        1    1.7075
                                                2    1.7283
                             O     shell        1    1.7087        1    1.7305
                                                1    1.7440        1    1.7528
--------------------------------------------------------------------------------
       4   Na    core        Al    core         1    2.4414
                             O     core         1    2.0971        1    2.1503
                                                1    2.1685        1    2.2390
                             O     shell        1    2.1204        1    2.1253
                                                1    2.2405        1    2.2459
--------------------------------------------------------------------------------
       5   O     core        Na    core         1    2.0971
                             Al    core         1    1.7283
                             Si    core         1    1.5963
                             O     shell        1    0.0999        1    2.4391
--------------------------------------------------------------------------------
       6   O     core        Na    core         1    2.2390
                             Al    core         1    1.7015
                             Si    core         1    1.5871
                             O     core         1    2.4651
                             O     shell        1    0.1230
--------------------------------------------------------------------------------
       7   O     core        Si    core         1    1.6167        1    1.6198
                             O     shell        1    0.1196        1    2.4868
--------------------------------------------------------------------------------
       8   O     core        Na    core         1    2.1685
                             Al    core         1    1.7075
                             Si    core         1    1.5857
                             O     shell        1    0.0926        1    2.4632
--------------------------------------------------------------------------------
       9   O     core        Na    core         1    2.1503
                             Al    core         1    1.7283
                             Si    core         1    1.5969
                             O     shell        1    0.1217        1    2.4975
--------------------------------------------------------------------------------
      10   O     core        Si    core         1    1.6039        1    1.6308
                             O     core         1    2.4651
                             O     shell        1    0.1336        1    2.4425
--------------------------------------------------------------------------------
      11   O     shell       Na    core         1    2.1204
                             Al    core         1    1.7528
                             Si    core         1    1.5220
                             O     core         1    0.0999        1    2.4868
                             O     shell        1    2.4197        1    2.4589
--------------------------------------------------------------------------------
      12   O     shell       Na    core         1    2.2459
                             Al    core         1    1.7087
                             Si    core         1    1.5017
                             O     core         1    0.1230        1    2.4425
                                                1    2.4632
                             O     shell        1    2.4379        1    2.4855
--------------------------------------------------------------------------------
      13   O     shell       Si    core         1    1.5764        1    1.5792
                             O     core         1    0.1196
                             O     shell        1    2.4589
--------------------------------------------------------------------------------
      14   O     shell       Na    core         1    2.2405
                             Al    core         1    1.7305
                             Si    core         1    1.5160
                             O     core         1    0.0926
                             O     shell        1    2.4379
--------------------------------------------------------------------------------
      15   O     shell       Na    core         1    2.1253
                             Al    core         1    1.7440
                             Si    core         1    1.5092
                             O     core         1    0.1217        1    2.4391
                             O     shell        1    2.4197        1    2.4549
--------------------------------------------------------------------------------
      16   O     shell       Si    core         1    1.5435        1    1.5948
                             O     core         1    0.1336        1    2.4975
                             O     shell        1    2.4549        1    2.4855
--------------------------------------------------------------------------------



  Time to end of optimisation =       0.2894 seconds


################################################################################
#  Output for point     2                                                      #
################################################################################


  Components of energy : 

--------------------------------------------------------------------------------
  Interatomic potentials     =         110.42050526 eV
  Three-body potentials      =           0.10933788 eV
  Monopole - monopole (real) =         -91.76736720 eV
  Monopole - monopole (recip)=        -358.94664624 eV
  Monopole - monopole (total)=        -450.71401344 eV
  Dispersion (real+recip)    =          -8.81918814 eV
--------------------------------------------------------------------------------
  Total lattice energy       =        -349.00335844 eV
--------------------------------------------------------------------------------
  Total lattice energy       =          -33673.4891 kJ/(mole unit cells)
--------------------------------------------------------------------------------


  Number of variables =       44

  Maximum number of calculations  =          1000
  Maximum Hessian update interval =            10
  Maximum step size               =   1.000000000
  Maximum parameter tolerance     =   0.000010000
  Maximum function  tolerance     =   0.000010000
  Maximum gradient  tolerance     =   0.001000000
  Maximum gradient  component     =   0.010000000

  Symmetry not applied to optimisation

  Newton-Raphson optimiser to be used

  BFGS hessian update to be used

  Minimiser to switch to RFO
  When gradient norm is less than     0.100000

  Dumpfile to be written after every    2 cycles

  Start of bulk optimisation :

  Cycle:      0 Energy:      -349.003358  Gnorm:      0.684012  CPU:    0.295
  ** Hessian calculated **
  Cycle:      1 Energy:      -349.564229  Gnorm:      0.202324  CPU:    0.306
  ** Hessian calculated **
  Cycle:      2 Energy:      -349.630389  Gnorm:      0.015333  CPU:    0.321
  ** Hessian has required structure
  Cycle:      3 Energy:      -349.630454  Gnorm:      0.013986  CPU:    0.331
  ** Hessian has required structure
  Cycle:      4 Energy:      -349.630557  Gnorm:      0.010506  CPU:    0.340
  ** Hessian has required structure
  Cycle:      5 Energy:      -349.630585  Gnorm:      0.007290  CPU:    0.350
  ** Hessian has required structure
  Cycle:      6 Energy:      -349.630610  Gnorm:      0.006751  CPU:    0.360
  ** Hessian has required structure
  Cycle:      7 Energy:      -349.630631  Gnorm:      0.006546  CPU:    0.369
  ** Hessian has required structure
  Cycle:      8 Energy:      -349.630660  Gnorm:      0.006164  CPU:    0.379
  ** Hessian has required structure
  Cycle:      9 Energy:      -349.630673  Gnorm:      0.004859  CPU:    0.389
  ** Hessian has required structure
  Cycle:     10 Energy:      -349.630692  Gnorm:      0.006134  CPU:    0.399
  ** Hessian has required structure
  Cycle:     11 Energy:      -349.630709  Gnorm:      0.006038  CPU:    0.408
  ** Hessian has required structure
  Cycle:     12 Energy:      -349.630856  Gnorm:      0.000093  CPU:    0.421
  ** Hessian has required structure


  **** Optimisation achieved ****


  Final energy =    -349.63085565 eV
  Final Gnorm  =       0.00000171

  Components of energy : 

--------------------------------------------------------------------------------
  Interatomic potentials     =         109.50045869 eV
  Three-body potentials      =           0.10885917 eV
  Monopole - monopole (real) =         -91.45687576 eV
  Monopole - monopole (recip)=        -358.96605143 eV
  Monopole - monopole (total)=        -450.42292718 eV
  Dispersion (real+recip)    =          -8.81724633 eV
--------------------------------------------------------------------------------
  Total lattice energy       =        -349.63085565 eV
--------------------------------------------------------------------------------
  Total lattice energy       =          -33734.0330 kJ/(mole unit cells)
--------------------------------------------------------------------------------

  Final fractional coordinates of atoms :

--------------------------------------------------------------------------------
   No.  Atomic        x           y          z          Radius
        Label       (Frac)      (Frac)     (Frac)       (Angs) 
--------------------------------------------------------------------------------
     1  Si    c     0.000000    0.468200    0.666666    0.000000
     2  Si    c     0.542232    0.542252    0.976520    0.000000
     3  Al    c     0.480322    0.000827    0.315003    0.000000
     4  Na    c     0.986623    0.999161    0.372946    0.000000
     5  O     c     0.438287    0.300713    0.199066    0.000000
     6  O     c     0.706528    0.143352    0.579141    0.000000
     7  O     c     0.886202    0.631367    0.866612    0.000000
     8  O     c     0.143147    0.676754    0.423821    0.000000
     9  O     c     0.620168    0.875649    0.079902    0.000000
    10  O     c     0.269774    0.399041    0.767907    0.000000
    11  O     s     0.448387    0.304672    0.183876    0.000000
    12  O     s     0.726753    0.167638    0.569600    0.000000
    13  O     s     0.864951    0.604830    0.855783    0.000000
    14  O     s     0.146766    0.678384    0.442280    0.000000
    15  O     s     0.604714    0.848206    0.087246    0.000000
    16  O     s     0.270264    0.420428    0.778189    0.000000
--------------------------------------------------------------------------------

  Final Cartesian lattice vectors (Angstroms) :

        4.914730    0.000000    0.000000
       -2.457365    4.256281    0.000000
        0.000000    0.000000    5.406570


  Final cell parameters and derivatives :

--------------------------------------------------------------------------------
       a            4.914730 Angstrom     dE/de1(xx)     0.000000 eV/strain
       b            4.914730 Angstrom     dE/de2(yy)     0.000000 eV/strain
       c            5.406570 Angstrom     dE/de3(zz)     0.000000 eV/strain
       alpha       90.000000 Degrees      dE/de4(yz)     0.000000 eV/strain
       beta        90.000000 Degrees      dE/de5(xz)     0.000000 eV/strain
       gamma      120.000000 Degrees      dE/de6(xy)     0.000000 eV/strain
--------------------------------------------------------------------------------

  Primitive cell volume =           113.097184 Angs**3

  Density of cell =      2.968096 g/cm**3

  Non-primitive cell volume =           113.097184 Angs**3


  Final internal derivatives :

--------------------------------------------------------------------------------
   No.  Atomic          a             b             c           Radius
        Label          (eV)          (eV)          (eV)        (eV/Angs)
--------------------------------------------------------------------------------
      1 Si    c       0.000000      0.000000      0.000000      0.000000
      2 Si    c      -0.000001     -0.000014     -0.000008      0.000000
      3 Al    c      -0.000012      0.000035      0.000010      0.000000
      4 Na    c       0.000014      0.000004      0.000000      0.000000
      5 O     c       0.000005     -0.000019     -0.000022      0.000000
      6 O     c       0.000003     -0.000010      0.000002      0.000000
      7 O     c       0.000002      0.000008     -0.000004      0.000000
      8 O     c      -0.000009      0.000001     -0.000010      0.000000
      9 O     c       0.000010     -0.000010     -0.000002      0.000000
     10 O     c       0.000014      0.000006     -0.000011      0.000000
     11 O     s      -0.000003      0.000020      0.000001      0.000000
     12 O     s      -0.000005      0.000014     -0.000001      0.000000
     13 O     s      -0.000008     -0.000006      0.000020      0.000000
     14 O     s       0.000001     -0.000002     -0.000009      0.000000
     15 O     s       0.000001     -0.000012      0.000008      0.000000
     16 O     s      -0.000002     -0.000011      0.000021      0.000000
--------------------------------------------------------------------------------
  Maximum abs         0.000014      0.000035      0.000022      0.000000
--------------------------------------------------------------------------------


  Distance calculation :


  Cutoff for distances  =      2.500000 Angstroms

--------------------------------------------------------------------------------
  Asymmetric unit site  Full lattice sites    No.  Distance      No.  Distance
      No.   At.No.            At.No.                (Angs)             (Angs) 
--------------------------------------------------------------------------------
       1   Si    core        O     core         1    1.5963        1    1.5970
                                                1    1.6041        1    1.6198
                             O     shell        1    1.5090        1    1.5212
                                                1    1.5436        1    1.5795
--------------------------------------------------------------------------------
       2   Si    core        O     core         1    1.5848        1    1.5863
                                                1    1.6181        1    1.6317
                             O     shell        1    1.5007        1    1.5147
                                                1    1.5794        1    1.5964
--------------------------------------------------------------------------------
       3   Al    core        Na    core         1    2.4425
                             O     core         1    1.6998        1    1.7066
                                                1    1.7284        1    1.7291
                             O     shell        1    1.7062        1    1.7296
                                                1    1.7438        1    1.7534
--------------------------------------------------------------------------------
       4   Na    core        Al    core         1    2.4425
                             O     core         1    2.0969        1    2.1484
                                                1    2.1721        1    2.2426
                             O     shell        1    2.1181        1    2.1225
                                                1    2.2455        1    2.2510
--------------------------------------------------------------------------------
       5   O     core        Na    core         1    2.1721
                             Al    core         1    1.7066
                             Si    core         1    1.5848
                             O     shell        1    0.0929        1    2.4645
--------------------------------------------------------------------------------
       6   O     core        Na    core         1    2.1484
                             Al    core         1    1.7284
                             Si    core         1    1.5970
                             O     shell        1    0.1222        1    2.4943
--------------------------------------------------------------------------------
       7   O     core        Si    core         1    1.6041        1    1.6317
                             O     core         1    2.4598
                             O     shell        1    0.1331        1    2.4386
--------------------------------------------------------------------------------
       8   O     core        Na    core         1    2.0969
                             Al    core         1    1.7291
                             Si    core         1    1.5963
                             O     shell        1    0.1010        1    2.4392
--------------------------------------------------------------------------------
       9   O     core        Na    core         1    2.2426
                             Al    core         1    1.6998
                             Si    core         1    1.5863
                             O     core         1    2.4598
                             O     shell        1    0.1237
--------------------------------------------------------------------------------
      10   O     core        Si    core         1    1.6181        1    1.6198
                             O     shell        1    0.1179        1    2.4859
--------------------------------------------------------------------------------
      11   O     shell       Na    core         1    2.2455
                             Al    core         1    1.7296
                             Si    core         1    1.5147
                             O     core         1    0.0929
                             O     shell        1    2.4386
--------------------------------------------------------------------------------
      12   O     shell       Na    core         1    2.1225
                             Al    core         1    1.7438
                             Si    core         1    1.5090
                             O     core         1    0.1222        1    2.4392
                             O     shell        1    2.4196        1    2.4521
--------------------------------------------------------------------------------
      13   O     shell       Si    core         1    1.5436        1    1.5964
                             O     core         1    0.1331        1    2.4943
                             O     shell        1    2.4521        1    2.4824
--------------------------------------------------------------------------------
      14   O     shell       Na    core         1    2.1181
                             Al    core         1    1.7534
                             Si    core         1    1.5212
                             O     core         1    0.1010        1    2.4859
                             O     shell        1    2.4196        1    2.4583
--------------------------------------------------------------------------------
      15   O     shell       Na    core         1    2.2510
                             Al    core         1    1.7062
                             Si    core         1    1.5007
                             O     core         1    0.1237        1    2.4386
                                                1    2.4645
                             O     shell        1    2.4386        1    2.4824
--------------------------------------------------------------------------------
      16   O     shell       Si    core         2    1.5795
                             O     core         1    0.1179
                             O     shell        1    2.4583
--------------------------------------------------------------------------------



  Time to end of optimisation =       0.4349 seconds


################################################################################
#  Output for point     3                                                      #
################################################################################


  Components of energy : 

--------------------------------------------------------------------------------
  Interatomic potentials     =         110.15544493 eV
  Three-body potentials      =           0.10885917 eV
  Monopole - monopole (real) =         -91.61781391 eV
  Monopole - monopole (recip)=        -358.90927114 eV
  Monopole - monopole (total)=        -450.52708506 eV
  Dispersion (real+recip)    =          -8.81724633 eV
--------------------------------------------------------------------------------
  Total lattice energy       =        -349.08002729 eV
--------------------------------------------------------------------------------
  Total lattice energy       =          -33680.8865 kJ/(mole unit cells)
--------------------------------------------------------------------------------


  Number of variables =       44

  Maximum number of calculations  =          1000
  Maximum Hessian update interval =            10
  Maximum step size               =   1.000000000
  Maximum parameter tolerance     =   0.000010000
  Maximum function  tolerance     =   0.000010000
  Maximum gradient  tolerance     =   0.001000000
  Maximum gradient  component     =   0.010000000

  Symmetry not applied to optimisation

  Newton-Raphson optimiser to be used

  BFGS hessian update to be used

  Minimiser to switch to RFO
  When gradient norm is less than     0.100000

  Dumpfile to be written after every    2 cycles

  Start of bulk optimisation :

  Cycle:      0 Energy:      -349.080027  Gnorm:      0.730831  CPU:    0.441
  ** Hessian calculated **
  Cycle:      1 Energy:      -349.472309  Gnorm:      0.103040  CPU:    0.451
  Cycle:      2 Energy:      -349.482256  Gnorm:      0.039305  CPU:    0.460
  ** Hessian has wrong structure
  ** Imaginary eigenvectors =   1
  Cycle:      3 Energy:      -349.482572  Gnorm:      0.026301  CPU:    0.486
  ** Hessian has wrong structure
  ** Imaginary eigenvectors =   1
  Cycle:      4 Energy:      -349.482425  Gnorm:      0.026506  CPU:    0.517
  ** Hessian has required structure
  Cycle:      5 Energy:      -349.490024  Gnorm:      0.017283  CPU:    0.531
  ** Hessian has required structure
  Cycle:      6 Energy:      -349.491982  Gnorm:      0.009032  CPU:    0.540
  ** Hessian has required structure
  Cycle:      7 Energy:      -349.492265  Gnorm:      0.004228  CPU:    0.550
  ** Hessian has required structure
  Cycle:      8 Energy:      -349.492364  Gnorm:      0.001585  CPU:    0.562
  ** Hessian has required structure


  **** Optimisation achieved ****


  Final energy =    -349.49236932 eV
  Final Gnorm  =       0.00018752

  Components of energy : 

--------------------------------------------------------------------------------
  Interatomic potentials     =         110.65118273 eV
  Three-body potentials      =           0.13606212 eV
  Monopole - monopole (real) =         -92.40092584 eV
  Monopole - monopole (recip)=        -358.92926865 eV
  Monopole - monopole (total)=        -451.33019449 eV
  Dispersion (real+recip)    =          -8.94941969 eV
--------------------------------------------------------------------------------
  Total lattice energy       =        -349.49236932 eV
--------------------------------------------------------------------------------
  Total lattice energy       =          -33720.6712 kJ/(mole unit cells)
--------------------------------------------------------------------------------

  Final fractional coordinates of atoms :

--------------------------------------------------------------------------------
   No.  Atomic        x           y          z          Radius
        Label       (Frac)      (Frac)     (Frac)       (Angs) 
--------------------------------------------------------------------------------
     1  Si    c     0.000000    0.468200    0.666666    0.000000
     2  Si    c     0.554189    0.534612    0.989839    0.000000
     3  Al    c     0.495240    0.982940    0.315910    0.000000
     4  Na    c     0.037883    0.016152    0.472946    0.000000
     5  O     c     0.435074    0.259619    0.183256    0.000000
     6  O     c     0.695147    0.141382    0.591911    0.000000
     7  O     c     0.887790    0.647122    0.847494    0.000000
     8  O     c     0.149215    0.652226    0.413645    0.000000
     9  O     c     0.675725    0.862182    0.118836    0.000000
    10  O     c     0.273372    0.419975    0.787076    0.000000
    11  O     s     0.450853    0.270633    0.172245    0.000000
    12  O     s     0.717671    0.164336    0.581975    0.000000
    13  O     s     0.868856    0.616140    0.838883    0.000000
    14  O     s     0.152562    0.655714    0.435144    0.000000
    15  O     s     0.649137    0.833851    0.120573    0.000000
    16  O     s     0.272328    0.434866    0.793092    0.000000
--------------------------------------------------------------------------------

  Final Cartesian lattice vectors (Angstroms) :

        4.914730    0.000000    0.000000
       -2.457365    4.256281    0.000000
        0.000000    0.000000    5.406570


  Final cell parameters and derivatives :

--------------------------------------------------------------------------------
       a            4.914730 Angstrom     dE/de1(xx)     0.000000 eV/strain
       b            4.914730 Angstrom     dE/de2(yy)     0.000000 eV/strain
       c            5.406570 Angstrom     dE/de3(zz)     0.000000 eV/strain
       alpha       90.000000 Degrees      dE/de4(yz)     0.000000 eV/strain
       beta        90.000000 Degrees      dE/de5(xz)     0.000000 eV/strain
       gamma      120.000000 Degrees      dE/de6(xy)     0.000000 eV/strain
--------------------------------------------------------------------------------

  Primitive cell volume =           113.097184 Angs**3

  Density of cell =      2.968096 g/cm**3

  Non-primitive cell volume =           113.097184 Angs**3


  Final internal derivatives :

--------------------------------------------------------------------------------
   No.  Atomic          a             b             c           Radius
        Label          (eV)          (eV)          (eV)        (eV/Angs)
--------------------------------------------------------------------------------
      1 Si    c       0.000000      0.000000      0.000000      0.000000
      2 Si    c      -0.002186     -0.000280     -0.001658      0.000000
      3 Al    c       0.000270      0.000033      0.000509      0.000000
      4 Na    c       0.001198     -0.000388      0.000000      0.000000
      5 O     c      -0.000272     -0.000350      0.000622      0.000000
      6 O     c       0.000191     -0.001513     -0.000929      0.000000
      7 O     c       0.001204      0.000982      0.001252      0.000000
      8 O     c       0.000689     -0.001312      0.000114      0.000000
      9 O     c       0.000517      0.002052      0.000083      0.000000
     10 O     c       0.000645     -0.000894     -0.001346      0.000000
     11 O     s       0.000861     -0.000804      0.002350      0.000000
     12 O     s      -0.001398      0.000734      0.000322      0.000000
     13 O     s       0.002356     -0.001340     -0.001795      0.000000
     14 O     s      -0.002259      0.001470     -0.002951      0.000000
     15 O     s      -0.000513      0.000224      0.001888      0.000000
     16 O     s      -0.001016      0.000338     -0.000092      0.000000
--------------------------------------------------------------------------------
  Maximum abs         0.002356      0.002052      0.002951      0.000000
--------------------------------------------------------------------------------


  Distance calculation :


  Cutoff for distances  =      2.500000 Angstroms

--------------------------------------------------------------------------------
  Asymmetric unit site  Full lattice sites    No.  Distance      No.  Distance
      No.   At.No.            At.No.                (Angs)             (Angs) 
--------------------------------------------------------------------------------
       1   Si    core        O     core         1    1.5869        1    1.6012
                                                1    1.6067        1    1.6136
                             O     shell        1    1.5099        1    1.5124
                                                1    1.5143        1    1.5826
--------------------------------------------------------------------------------
       2   Si    core        O     core         1    1.5721        1    1.5727
                                                1    1.6268        1    1.6369
                             O     shell        1    1.4812        1    1.5016
                                                1    1.6120        1    1.6161
--------------------------------------------------------------------------------
       3   Al    core        Na    core         1    2.4833
                             O     core         1    1.6736        1    1.6891
                                                1    1.7416        1    1.7461
                             O     shell        1    1.6669        1    1.7200
                                                1    1.7563        1    1.7691
--------------------------------------------------------------------------------
       4   Na    core        Al    core         1    2.4833
                             O     core         1    2.1401        1    2.1602
                                                1    2.3151        1    2.4220
                                                1    2.4615
                             O     shell        1    2.1204        1    2.1215
                                                1    2.4059        1    2.4874
--------------------------------------------------------------------------------
       5   O     core        Na    core         1    2.3151
                             Al    core         1    1.6891
                             Si    core         1    1.5721
                             O     shell        1    0.0911        1    2.4935
--------------------------------------------------------------------------------
       6   O     core        Na    core         1    2.1602
                             Al    core         1    1.7416
                             Si    core         1    1.6067
                             O     shell        1    0.1240        1    2.4422
--------------------------------------------------------------------------------
       7   O     core        Si    core         1    1.5869        1    1.6369
                             O     core         1    2.3361
                             O     shell        1    0.1409        1    2.3397
--------------------------------------------------------------------------------
       8   O     core        Na    core         1    2.1401
                             Al    core         1    1.7461
                             Si    core         1    1.6012
                             O     shell        1    0.1174        1    2.4476
--------------------------------------------------------------------------------
       9   O     core        Na    core         1    2.4615
                             Al    core         1    1.6736
                             Si    core         1    1.5727
                             O     core         1    2.3361
                             O     shell        1    0.1355        1    2.4087
--------------------------------------------------------------------------------
      10   O     core        Na    core         1    2.4220
                             Si    core         1    1.6136        1    1.6268
                             O     shell        1    0.0826        1    2.4502
--------------------------------------------------------------------------------
      11   O     shell       Na    core         1    2.4059
                             Al    core         1    1.7200
                             Si    core         1    1.5016
                             O     core         1    0.0911
                             O     shell        1    2.4479
--------------------------------------------------------------------------------
      12   O     shell       Na    core         1    2.1215
                             Al    core         1    1.7563
                             Si    core         1    1.5143
                             O     core         1    0.1240        1    2.4476
                             O     shell        1    2.4004        1    2.4226
--------------------------------------------------------------------------------
      13   O     shell       Si    core         1    1.5099        1    1.6120
                             O     core         1    0.1409        1    2.4087
                                                1    2.4422
                             O     shell        1    2.4004        1    2.4054
--------------------------------------------------------------------------------
      14   O     shell       Na    core         1    2.1204
                             Al    core         1    1.7691
                             Si    core         1    1.5124
                             O     core         1    0.1174        1    2.4502
                             O     shell        1    2.4226        1    2.4308
--------------------------------------------------------------------------------
      15   O     shell       Al    core         1    1.6669
                             Si    core         1    1.4812
                             O     core         1    0.1355        1    2.3397
                                                1    2.4935
                             O     shell        1    2.4054        1    2.4479
--------------------------------------------------------------------------------
      16   O     shell       Na    core         1    2.4874
                             Si    core         1    1.5826        1    1.6161
                             O     core         1    0.0826
                             O     shell        1    2.4308
--------------------------------------------------------------------------------



  Time to end of optimisation =       0.5792 seconds


################################################################################
#  Output for point     4                                                      #
################################################################################


  Components of energy : 

--------------------------------------------------------------------------------
  Interatomic potentials     =         111.40189416 eV
  Three-body potentials      =           0.13606212 eV
  Monopole - monopole (real) =         -92.60406609 eV
  Monopole - monopole (recip)=        -358.86545835 eV
  Monopole - monopole (total)=        -451.46952444 eV
  Dispersion (real+recip)    =          -8.94941969 eV
--------------------------------------------------------------------------------
  Total lattice energy       =        -348.88098784 eV
--------------------------------------------------------------------------------
  Total lattice energy       =          -33661.6822 kJ/(mole unit cells)
--------------------------------------------------------------------------------


  Number of variables =       44

  Maximum number of calculations  =          1000
  Maximum Hessian update interval =            10
  Maximum step size               =   1.000000000
  Maximum parameter tolerance     =   0.000010000
  Maximum function  tolerance     =   0.000010000
  Maximum gradient  tolerance     =   0.001000000
  Maximum gradient  component     =   0.010000000

  Symmetry not applied to optimisation

  Newton-Raphson optimiser to be used

  BFGS hessian update to be used

  Minimiser to switch to RFO
  When gradient norm is less than     0.100000

  Dumpfile to be written after every    2 cycles

  Start of bulk optimisation :

  Cycle:      0 Energy:      -348.880988  Gnorm:      0.625305  CPU:    0.585
  ** Hessian calculated **
  Cycle:      1 Energy:      -349.172979  Gnorm:      0.106147  CPU:    0.594
  ** Hessian calculated **
  Cycle:      2 Energy:      -349.211251  Gnorm:      0.062144  CPU:    0.607
  ** Hessian has required structure
  Cycle:      3 Energy:      -349.212606  Gnorm:      0.055811  CPU:    0.619
  ** Hessian has required structure
  Cycle:      4 Energy:      -349.215368  Gnorm:      0.059155  CPU:    0.629
  ** Hessian has required structure
  Cycle:      5 Energy:      -349.217756  Gnorm:      0.078219  CPU:    0.639
  ** Hessian has required structure
  Cycle:      6 Energy:      -349.220039  Gnorm:      0.054119  CPU:    0.648
  ** Hessian has required structure
  Cycle:      7 Energy:      -349.221138  Gnorm:      0.051032  CPU:    0.658
  ** Hessian has required structure
  Cycle:      8 Energy:      -349.222084  Gnorm:      0.052562  CPU:    0.668
  ** Hessian has required structure
  Cycle:      9 Energy:      -349.222993  Gnorm:      0.062020  CPU:    0.678
  ** Hessian has required structure
  Cycle:     10 Energy:      -349.224229  Gnorm:      0.059024  CPU:    0.687
  ** Hessian has required structure
  Cycle:     11 Energy:      -349.224707  Gnorm:      0.048091  CPU:    0.697
  ** Hessian has required structure
  Cycle:     12 Energy:      -349.249866  Gnorm:      0.067038  CPU:    0.712
  ** Hessian has required structure
  Cycle:     13 Energy:      -349.264011  Gnorm:      0.140789  CPU:    0.726
  ** Hessian has required structure
  Cycle:     14 Energy:      -349.274596  Gnorm:      0.177662  CPU:    0.735
  ** Hessian has required structure
  Cycle:     15 Energy:      -349.286107  Gnorm:      0.186846  CPU:    0.746
  ** Hessian has required structure
  Cycle:     16 Energy:      -349.354439  Gnorm:      0.230944  CPU:    0.759
  ** Hessian has required structure
  Cycle:     17 Energy:      -349.424022  Gnorm:      0.221932  CPU:    0.771
  ** Hessian has required structure
  Cycle:     18 Energy:      -349.453703  Gnorm:      0.182136  CPU:    0.780
  ** Hessian has required structure
  Cycle:     19 Energy:      -349.481625  Gnorm:      0.080399  CPU:    0.790
  ** Hessian has required structure
  Cycle:     20 Energy:      -349.489406  Gnorm:      0.052342  CPU:    0.800
  ** Hessian has required structure
  Cycle:     21 Energy:      -349.492392  Gnorm:      0.028626  CPU:    0.810
  ** Hessian has required structure
  Cycle:     22 Energy:      -349.496174  Gnorm:      0.009636  CPU:    0.825
  ** Hessian has required structure
  Cycle:     23 Energy:      -349.496342  Gnorm:      0.001576  CPU:    0.835
  ** Hessian has required structure
  Cycle:     24 Energy:      -349.496365  Gnorm:      0.000275  CPU:    0.844
  ** Hessian has required structure


  **** Optimisation achieved ****


  Final energy =    -349.49636559 eV
  Final Gnorm  =       0.00001602

  Components of energy : 

--------------------------------------------------------------------------------
  Interatomic potentials     =         113.06662960 eV
  Three-body potentials      =           0.10482467 eV
  Monopole - monopole (real) =         -94.51934436 eV
  Monopole - monopole (recip)=        -358.82157874 eV
  Monopole - monopole (total)=        -453.34092310 eV
  Dispersion (real+recip)    =          -9.32689676 eV
--------------------------------------------------------------------------------
  Total lattice energy       =        -349.49636559 eV
--------------------------------------------------------------------------------
  Total lattice energy       =          -33721.0567 kJ/(mole unit cells)
--------------------------------------------------------------------------------

  Final fractional coordinates of atoms :

--------------------------------------------------------------------------------
   No.  Atomic        x           y          z          Radius
        Label       (Frac)      (Frac)     (Frac)       (Angs) 
--------------------------------------------------------------------------------
     1  Si    c     0.000000    0.468200    0.666666    0.000000
     2  Si    c     0.546095    0.480492    0.999893    0.000000
     3  Al    c     0.554543    0.942492    0.310394    0.000000
     4  Na    c     0.217903    0.102593    0.572946    0.000000
     5  O     c     0.465796    0.146399    0.099454    0.000000
     6  O     c     0.764167    0.127722    0.568322    0.000000
     7  O     c     0.780181    0.601912    0.760527    0.000000
     8  O     c     0.208850    0.665776    0.443472    0.000000
     9  O     c     0.719442    0.740655    0.197631    0.000000
    10  O     c     0.215342    0.445003    0.890349    0.000000
    11  O     s     0.480748    0.171313    0.102240    0.000000
    12  O     s     0.778814    0.154649    0.562157    0.000000
    13  O     s     0.781661    0.576059    0.772661    0.000000
    14  O     s     0.206983    0.663247    0.462769    0.000000
    15  O     s     0.685817    0.723604    0.182018    0.000000
    16  O     s     0.225639    0.449217    0.877953    0.000000
--------------------------------------------------------------------------------

  Final Cartesian lattice vectors (Angstroms) :

        4.914730    0.000000    0.000000
       -2.457365    4.256281    0.000000
        0.000000    0.000000    5.406570


  Final cell parameters and derivatives :

--------------------------------------------------------------------------------
       a            4.914730 Angstrom     dE/de1(xx)     0.000000 eV/strain
       b            4.914730 Angstrom     dE/de2(yy)     0.000000 eV/strain
       c            5.406570 Angstrom     dE/de3(zz)     0.000000 eV/strain
       alpha       90.000000 Degrees      dE/de4(yz)     0.000000 eV/strain
       beta        90.000000 Degrees      dE/de5(xz)     0.000000 eV/strain
       gamma      120.000000 Degrees      dE/de6(xy)     0.000000 eV/strain
--------------------------------------------------------------------------------

  Primitive cell volume =           113.097184 Angs**3

  Density of cell =      2.968096 g/cm**3

  Non-primitive cell volume =           113.097184 Angs**3


  Final internal derivatives :

[...]
--------------------------------------------------------------------------------
       8   O     core        Al    core         1    1.7113
                             Si    core         1    1.5787
                             O     shell        1    0.1036
--------------------------------------------------------------------------------
       9   O     core        Na    core         1    2.2990
                             Al    core         1    1.7075
                             Si    core         1    1.5765
                             O     shell        1    0.1239        1    2.4235
--------------------------------------------------------------------------------
      10   O     core        Na    core         1    2.4625
                             Si    core         1    1.6034        1    1.6307
                             O     shell        1    0.1446        1    2.4283
                                                1    2.4554
--------------------------------------------------------------------------------
      11   O     shell       Na    core         1    2.2154
                             Al    core         1    1.7768
                             Si    core         1    1.4872
                             O     core         1    0.1049
                             O     shell        1    2.3980        1    2.4902
--------------------------------------------------------------------------------
      12   O     shell       Al    core         1    1.6588
                             Si    core         1    1.4278
                             O     core         1    0.1678        1    2.4554
                             O     shell        1    2.4268        1    2.4417
--------------------------------------------------------------------------------
      13   O     shell       Na    core         1    2.3424
                             Si    core         1    1.6141        1    1.6445
                             O     core         1    0.0838
                             O     shell        1    2.4902
--------------------------------------------------------------------------------
      14   O     shell       Al    core         1    1.7546
                             Si    core         1    1.4952
                             O     core         1    0.1036
                             O     shell        1    2.4268
--------------------------------------------------------------------------------
      15   O     shell       Na    core         1    2.3064
                             Al    core         1    1.7374
                             Si    core         1    1.4785
                             O     core         1    0.1239        1    2.4283
                                                1    2.4339
                             O     shell        1    2.3481        1    2.3980
--------------------------------------------------------------------------------
      16   O     shell       Si    core         1    1.5300        1    1.5869
                             O     core         1    0.1446        1    2.4235
                                                1    2.4955
                             O     shell        1    2.3481        1    2.4417
--------------------------------------------------------------------------------



  Time to end of optimisation =       1.6236 seconds


################################################################################
#  Output for point    10                                                      #
################################################################################


  Components of energy : 

--------------------------------------------------------------------------------
  Interatomic potentials     =         113.33484829 eV
  Three-body potentials      =           0.10018904 eV
  Monopole - monopole (real) =         -94.55667852 eV
  Monopole - monopole (recip)=        -358.81102105 eV
  Monopole - monopole (total)=        -453.36769957 eV
  Dispersion (real+recip)    =          -9.35182709 eV
--------------------------------------------------------------------------------
  Total lattice energy       =        -349.28448932 eV
--------------------------------------------------------------------------------
  Total lattice energy       =          -33700.6139 kJ/(mole unit cells)
--------------------------------------------------------------------------------


  Number of variables =       44

  Maximum number of calculations  =          1000
  Maximum Hessian update interval =            10
  Maximum step size               =   1.000000000
  Maximum parameter tolerance     =   0.000010000
  Maximum function  tolerance     =   0.000010000
  Maximum gradient  tolerance     =   0.001000000
  Maximum gradient  component     =   0.010000000

  Symmetry not applied to optimisation

  Newton-Raphson optimiser to be used

  BFGS hessian update to be used

  Minimiser to switch to RFO
  When gradient norm is less than     0.100000

  Dumpfile to be written after every    2 cycles

  Start of bulk optimisation :

  Cycle:      0 Energy:      -349.284489  Gnorm:      0.585712  CPU:    1.629
  ** Hessian calculated **
  Cycle:      1 Energy:      -349.500299  Gnorm:      0.333842  CPU:    1.638
  Cycle:      2 Energy:      -349.544137  Gnorm:      0.170453  CPU:    1.647
  Cycle:      3 Energy:      -349.554930  Gnorm:      0.123764  CPU:    1.656
  Cycle:      4 Energy:      -349.561058  Gnorm:      0.097970  CPU:    1.665
  ** Hessian has required structure
  Cycle:      5 Energy:      -349.565346  Gnorm:      0.124043  CPU:    1.675
  ** Hessian has required structure
  Cycle:      6 Energy:      -349.573055  Gnorm:      0.120169  CPU:    1.684
  ** Hessian has required structure
  Cycle:      7 Energy:      -349.577976  Gnorm:      0.098477  CPU:    1.694
  ** Hessian has required structure
  Cycle:      8 Energy:      -349.580727  Gnorm:      0.124889  CPU:    1.704
  ** Hessian has required structure
  Cycle:      9 Energy:      -349.588386  Gnorm:      0.083511  CPU:    1.714
  ** Hessian has required structure
  Cycle:     10 Energy:      -349.589772  Gnorm:      0.089259  CPU:    1.723
  ** Hessian has required structure
  Cycle:     11 Energy:      -349.661621  Gnorm:      0.106115  CPU:    1.741
  ** Hessian has required structure
  Cycle:     12 Energy:      -349.682478  Gnorm:      0.182739  CPU:    1.750
  ** Hessian has required structure
  Cycle:     13 Energy:      -349.710214  Gnorm:      0.184375  CPU:    1.760
  ** Hessian has required structure
  Cycle:     14 Energy:      -349.755683  Gnorm:      0.225110  CPU:    1.771
  ** Hessian has required structure
  Cycle:     15 Energy:      -349.825274  Gnorm:      0.143872  CPU:    1.781
  ** Hessian has required structure
  Cycle:     16 Energy:      -349.842435  Gnorm:      0.146834  CPU:    1.790
  ** Hessian has required structure
  Cycle:     17 Energy:      -349.884059  Gnorm:      0.108296  CPU:    1.800
  ** Hessian has required structure
  Cycle:     18 Energy:      -349.908475  Gnorm:      0.087510  CPU:    1.812
  ** Hessian has required structure
  Cycle:     19 Energy:      -349.915927  Gnorm:      0.041756  CPU:    1.821
  ** Hessian has required structure
  Cycle:     20 Energy:      -349.917934  Gnorm:      0.015923  CPU:    1.833
  ** Hessian has required structure
  Cycle:     21 Energy:      -349.918189  Gnorm:      0.000061  CPU:    1.846
  ** Hessian has required structure


  **** Optimisation achieved ****


  Final energy =    -349.91818880 eV
  Final Gnorm  =       0.00000089

  Components of energy : 

--------------------------------------------------------------------------------
  Interatomic potentials     =         109.56130634 eV
  Three-body potentials      =           0.13828352 eV
  Monopole - monopole (real) =         -91.76712661 eV
  Monopole - monopole (recip)=        -358.91556739 eV
  Monopole - monopole (total)=        -450.68269400 eV
  Dispersion (real+recip)    =          -8.93508467 eV
--------------------------------------------------------------------------------
  Total lattice energy       =        -349.91818880 eV
--------------------------------------------------------------------------------
  Total lattice energy       =          -33761.7562 kJ/(mole unit cells)
--------------------------------------------------------------------------------

  Final fractional coordinates of atoms :

--------------------------------------------------------------------------------
   No.  Atomic        x           y          z          Radius
        Label       (Frac)      (Frac)     (Frac)       (Angs) 
--------------------------------------------------------------------------------
     1  Si    c     0.000000    0.468200    0.666666    0.000000
     2  Si    c     0.437717    0.382926    0.985985    0.000000
     3  Al    c     0.554073    0.945189    0.348164    0.000000
     4  Na    c     0.003013    0.663722    0.172946    0.000000
     5  O     c     0.425679    0.089715    0.110387    0.000000
     6  O     c     0.910215    0.237979    0.439178    0.000000
     7  O     c     0.706696    0.509349    0.765705    0.000000
     8  O     c     0.272429    0.804788    0.581259    0.000000
     9  O     c     0.557976    0.647258    0.194693    0.000000
    10  O     c     0.099507    0.321726    0.895920    0.000000
    11  O     s     0.430373    0.111654    0.110756    0.000000
    12  O     s     0.895383    0.245542    0.457114    0.000000
    13  O     s     0.710403    0.494022    0.777588    0.000000
    14  O     s     0.258604    0.775656    0.575278    0.000000
    15  O     s     0.548841    0.640120    0.182834    0.000000
    16  O     s     0.125047    0.344533    0.883900    0.000000
--------------------------------------------------------------------------------

  Final Cartesian lattice vectors (Angstroms) :

        4.914730    0.000000    0.000000
       -2.457365    4.256281    0.000000
        0.000000    0.000000    5.406570


  Final cell parameters and derivatives :

--------------------------------------------------------------------------------
       a            4.914730 Angstrom     dE/de1(xx)     0.000000 eV/strain
       b            4.914730 Angstrom     dE/de2(yy)     0.000000 eV/strain
       c            5.406570 Angstrom     dE/de3(zz)     0.000000 eV/strain
       alpha       90.000000 Degrees      dE/de4(yz)     0.000000 eV/strain
       beta        90.000000 Degrees      dE/de5(xz)     0.000000 eV/strain
       gamma      120.000000 Degrees      dE/de6(xy)     0.000000 eV/strain
--------------------------------------------------------------------------------

  Primitive cell volume =           113.097184 Angs**3

  Density of cell =      2.968096 g/cm**3

  Non-primitive cell volume =           113.097184 Angs**3


  Final internal derivatives :

--------------------------------------------------------------------------------
   No.  Atomic          a             b             c           Radius
        Label          (eV)          (eV)          (eV)        (eV/Angs)
--------------------------------------------------------------------------------
      1 Si    c       0.000000      0.000000      0.000000      0.000000
      2 Si    c      -0.000001      0.000002     -0.000001      0.000000
      3 Al    c       0.000006      0.000002      0.000004      0.000000
      4 Na    c      -0.000004     -0.000001      0.000000      0.000000
      5 O     c       0.000001     -0.000005     -0.000000      0.000000
      6 O     c      -0.000016      0.000022      0.000006      0.000000
      7 O     c      -0.000003      0.000008      0.000002      0.000000
      8 O     c      -0.000003     -0.000001      0.000006      0.000000
      9 O     c       0.000001      0.000001      0.000004      0.000000
     10 O     c       0.000004      0.000002     -0.000002      0.000000
     11 O     s       0.000002      0.000007     -0.000000      0.000000
     12 O     s       0.000002     -0.000009      0.000001      0.000000
     13 O     s       0.000003     -0.000011     -0.000005      0.000000
     14 O     s       0.000003     -0.000002      0.000002      0.000000
     15 O     s       0.000003     -0.000007     -0.000001      0.000000
     16 O     s      -0.000004      0.000000     -0.000010      0.000000
--------------------------------------------------------------------------------
  Maximum abs         0.000016      0.000022      0.000010      0.000000
--------------------------------------------------------------------------------


  Distance calculation :


  Cutoff for distances  =      2.500000 Angstroms

--------------------------------------------------------------------------------
  Asymmetric unit site  Full lattice sites    No.  Distance      No.  Distance
      No.   At.No.            At.No.                (Angs)             (Angs) 
--------------------------------------------------------------------------------
       1   Si    core        O     core         1    1.5775        1    1.5898
                                                1    1.6266        1    1.6423
                             O     shell        1    1.4774        1    1.4907
                                                1    1.5812        1    1.6069
--------------------------------------------------------------------------------
       2   Si    core        O     core         1    1.5644        1    1.5945
                                                1    1.6095        1    1.6525
                             O     shell        1    1.4784        1    1.5292
                                                1    1.5530        1    1.6223
--------------------------------------------------------------------------------
       3   Al    core        O     core         1    1.6905        1    1.6914
                                                1    1.7331        1    1.7393
                             O     shell        1    1.6922        1    1.7347
                                                1    1.7609        1    1.7843
--------------------------------------------------------------------------------
       4   Na    core        O     core         1    2.1128        1    2.1511
                                                1    2.3883        1    2.4679
                                                1    2.4878
                             O     shell        1    2.1771        1    2.1788
                                                1    2.4036        1    2.4333
                                                1    2.4766        1    2.4907
--------------------------------------------------------------------------------
       5   O     core        Na    core         1    2.1128
                             Al    core         1    1.7331
                             Si    core         1    1.5644
                             O     shell        1    0.0984        1    2.4900
--------------------------------------------------------------------------------
       6   O     core        Na    core         1    2.3883
                             Al    core         1    1.6905
                             Si    core         1    1.5775
                             O     shell        1    0.1371        1    2.4355
--------------------------------------------------------------------------------
       7   O     core        Si    core         1    1.6423        1    1.6525
                             O     shell        1    0.1073
--------------------------------------------------------------------------------
       8   O     core        Na    core         1    2.4878
                             Al    core         1    1.7393
                             Si    core         1    1.5898
                             O     shell        1    0.1282
--------------------------------------------------------------------------------
       9   O     core        Na    core         1    2.1511
                             Al    core         1    1.6914
                             Si    core         1    1.5945
                             O     shell        1    0.0760        1    2.4244
--------------------------------------------------------------------------------
      10   O     core        Na    core         1    2.4679
                             Si    core         1    1.6095        1    1.6266
                             O     shell        1    0.1359
--------------------------------------------------------------------------------
      11   O     shell       Na    core         1    2.1788
                             Al    core         1    1.7843
                             Si    core         1    1.4784
                             O     core         1    0.0984        1    2.4244
                             O     shell        1    2.3926        1    2.4666
--------------------------------------------------------------------------------
      12   O     shell       Na    core         1    2.4036
                             Al    core         1    1.6922
                             Si    core         1    1.4774
                             O     core         1    0.1371
                             O     shell        1    2.3941
--------------------------------------------------------------------------------
      13   O     shell       Na    core         1    2.4766
                             Si    core         1    1.6069        1    1.6223
                             O     core         1    0.1073
                             O     shell        1    2.4666
--------------------------------------------------------------------------------
      14   O     shell       Na    core         1    2.4333
                             Al    core         1    1.7609
                             Si    core         1    1.4907
                             O     core         1    0.1282        1    2.4355
                             O     shell        1    2.3941
--------------------------------------------------------------------------------
      15   O     shell       Na    core         1    2.1771
                             Al    core         1    1.7347
                             Si    core         1    1.5292
                             O     core         1    0.0760        1    2.4900
                             O     shell        1    2.3926        1    2.4566
--------------------------------------------------------------------------------
      16   O     shell       Na    core         1    2.4907
                             Si    core         1    1.5530        1    1.5812
                             O     core         1    0.1359
                             O     shell        1    2.4566
--------------------------------------------------------------------------------



  Time to end of optimisation =       1.8592 seconds


  Peak dynamic memory used =       0.54 MB 


  Timing analysis for GULP :

--------------------------------------------------------------------------------
  Task / Subroutine                                          Time (Seconds)
--------------------------------------------------------------------------------
  Calculation of reciprocal space energy and derivatives          0.7160
  Calculation of real space energy and derivatives                0.9203
  Calculation of three-body energy and derivatives                0.0742
  Calculation of matrix inversion                                 0.0007
  Global summation overhead                                       0.0009
--------------------------------------------------------------------------------
  Total CPU time                                                  1.8592
--------------------------------------------------------------------------------


  Dump file written as example11.grs                                           


  Job Finished at 09:00.43 29th July       2013                               

