********************************************************************************
*                       GENERAL UTILITY LATTICE PROGRAM                        *
*                                 Julian Gale                                  *
*                      Nanochemistry Research Institute                        *
*                           Department of Chemistry                            *
*                    Curtin University, Western Australia                      *
********************************************************************************
* Version = 4.1.0 * Last modified =   7th July 2013                            *
********************************************************************************
*  transition   - transition state search by rfo method                        *
*  bulk_noopt   - do not optimise during bulk calculation                      *
*  property     - calculate properties for final geometry                      *
*  defect       - perform defect calculation after bulk run                    *
*  regi_before  - output region 1 at start of defect calculation               *
*  nodsym       - symmetry not to be used in defect calculation                *
*  rfo          - optimisation step to be determined by RFO method             *
********************************************************************************
* Example of defect transition state calc : Magnesium vacancy migration        *
********************************************************************************


  Job Started  at 09:00.37 29th July       2013                               

  Number of CPUs =     1

  Host name      = M-A0002884.local                        


  Total number of configurations input =   1

********************************************************************************
*  Input for Configuration =   1                                               *
********************************************************************************

  Formula = O4Mg4                                                       

  Number of irreducible atoms/shells =      12


  Total number atoms/shells =      12

  Dimensionality = 3               :  Bulk   



  Cartesian lattice vectors (Angstroms) :

        4.212000    0.000000    0.000000
        0.000000    4.212000    0.000000
        0.000000    0.000000    4.212000

  Cell parameters (Angstroms/Degrees):

  a =       4.2120    alpha =  90.0000
  b =       4.2120    beta  =  90.0000
  c =       4.2120    gamma =  90.0000

  Initial cell volume =          74.724856 Angs**3

  Temperature of configuration =  0.000     K 

  Pressure of configuration =         0.000 GPa 

  Fractional coordinates of asymmetric unit :

--------------------------------------------------------------------------------
   No.  Atomic       x           y          z         Charge      Occupancy
        Label      (Frac)      (Frac)     (Frac)        (e)         (Frac)  
--------------------------------------------------------------------------------
      1 O     c    0.500000    0.500000    0.500000     0.86902    1.000000    
      2 O     c    0.500000    0.000000    0.000000     0.86902    1.000000    
      3 O     c    0.000000    0.500000    0.000000     0.86902    1.000000    
      4 O     c    0.000000    0.000000    0.500000     0.86902    1.000000    
      5 Mg    c    0.000000    0.000000    0.000000     2.00000    1.000000    
      6 Mg    c    0.000000    0.500000    0.500000     2.00000    1.000000    
      7 Mg    c    0.500000    0.000000    0.500000     2.00000    1.000000    
      8 Mg    c    0.500000    0.500000    0.000000     2.00000    1.000000    
      9 O     s    0.500000    0.500000    0.500000    -2.86902    1.000000    
     10 O     s    0.500000    0.000000    0.000000    -2.86902    1.000000    
     11 O     s    0.000000    0.500000    0.000000    -2.86902    1.000000    
     12 O     s    0.000000    0.000000    0.500000    -2.86902    1.000000    
--------------------------------------------------------------------------------



********************************************************************************
*  General input information                                                   *
********************************************************************************

  Species output for all configurations : 

--------------------------------------------------------------------------------
  Species    Type    Atomic    Atomic    Charge       Radii (Angs)     Library
                     Number     Mass       (e)     Cova   Ionic  VDW   Symbol
--------------------------------------------------------------------------------
    O        Core        8      16.00   0.869020   0.730  0.000  1.360          
    Mg       Core       12      24.31   2.000000   1.100  0.000  1.640          
    O        Shell       8       0.00  -2.869020   0.730  0.000  1.360          
--------------------------------------------------------------------------------


  Lattice summation method               =    Ewald          (3-D)
                                         =    Parry          (2-D)
                                         =    Saunders et al (1-D)
  Accuracy factor for lattice sums       =   12.000


  Time limit = Infinity

  Maximum range for interatomic potentials =    100000.000000 Angstroms

  General interatomic potentials :

--------------------------------------------------------------------------------
Atom  Types   Potential         A         B         C         D     Cutoffs(Ang)
  1     2                                                            Min    Max 
--------------------------------------------------------------------------------
Mg   c O    s Buckingham    0.128E+04 0.300      0.00      0.00     0.000  5.000
O    s O    s Buckingham    0.128E+04 0.300      27.9      0.00     0.000  5.000
O    c O    s Spring (c-s)   74.9      0.00      0.00      0.00     0.000  0.800
--------------------------------------------------------------------------------

********************************************************************************
*  Output for configuration   1                                                *
********************************************************************************


  Components of energy : 

--------------------------------------------------------------------------------
  Interatomic potentials     =          28.18454413 eV
  Monopole - monopole (real) =         -57.34563089 eV
  Monopole - monopole (recip)=        -133.83771537 eV
  Monopole - monopole (total)=        -191.18334626 eV
--------------------------------------------------------------------------------
  Total lattice energy       =        -162.99880213 eV
--------------------------------------------------------------------------------
  Total lattice energy       =          -15726.8927 kJ/(mole unit cells)
--------------------------------------------------------------------------------

  Born effective charge tensors : 

-------------------------------------------------------------------------------
  Atom             x           y             z
-------------------------------------------------------------------------------
   1 O     x      -2.0071     -0.0000      0.0000
           y      -0.0000     -2.0071      0.0000
           z       0.0000      0.0000     -2.0071
-------------------------------------------------------------------------------
   2 O     x      -2.0071     -0.0000      0.0000
           y      -0.0000     -2.0071     -0.0000
           z       0.0000     -0.0000     -2.0071
-------------------------------------------------------------------------------
   3 O     x      -2.0071     -0.0000     -0.0000
           y      -0.0000     -2.0071      0.0000
           z      -0.0000      0.0000     -2.0071
-------------------------------------------------------------------------------
   4 O     x      -2.0071     -0.0000     -0.0000
           y      -0.0000     -2.0071     -0.0000
           z      -0.0000     -0.0000     -2.0071
-------------------------------------------------------------------------------
   5 Mg    x       2.0071      0.0000     -0.0000
           y       0.0000      2.0071     -0.0000
           z      -0.0000     -0.0000      2.0071
-------------------------------------------------------------------------------
   6 Mg    x       2.0071      0.0000     -0.0000
           y       0.0000      2.0071     -0.0000
           z      -0.0000     -0.0000      2.0071
-------------------------------------------------------------------------------
   7 Mg    x       2.0071      0.0000     -0.0000
           y       0.0000      2.0071     -0.0000
           z      -0.0000     -0.0000      2.0071
-------------------------------------------------------------------------------
   8 Mg    x       2.0071      0.0000     -0.0000
           y       0.0000      2.0071     -0.0000
           z       0.0000      0.0000      2.0071
-------------------------------------------------------------------------------




  Elastic Constant Matrix: (Units=GPa)

-------------------------------------------------------------------------------
  Indices      1         2         3         4         5         6    
-------------------------------------------------------------------------------
       1    401.5289  192.7222  192.7222    0.0000   -0.0000    0.0000
       2    192.7222  401.5289  192.7222   -0.0000   -0.0000    0.0000
       3    192.7222  192.7222  401.5289   -0.0000   -0.0000    0.0000
       4      0.0000   -0.0000   -0.0000  183.1294    0.0000   -0.0000
       5     -0.0000   -0.0000   -0.0000    0.0000  183.1294    0.0000
       6      0.0000    0.0000    0.0000   -0.0000    0.0000  183.1294
-------------------------------------------------------------------------------


  Elastic Compliance Matrix: (Units=1/GPa)

-------------------------------------------------------------------------------
  Indices      1         2         3         4         5         6    
-------------------------------------------------------------------------------
       1    0.003616 -0.001173 -0.001173 -0.000000  0.000000 -0.000000
       2   -0.001173  0.003616 -0.001173  0.000000 -0.000000 -0.000000
       3   -0.001173 -0.001173  0.003616  0.000000  0.000000  0.000000
       4   -0.000000  0.000000  0.000000  0.005461 -0.000000  0.000000
       5    0.000000 -0.000000  0.000000 -0.000000  0.005461 -0.000000
       6   -0.000000 -0.000000  0.000000  0.000000 -0.000000  0.005461
-------------------------------------------------------------------------------

  Mechanical properties :

-------------------------------------------------------------------------------
  Convention :                    Reuss         Voigt         Hill
-------------------------------------------------------------------------------
  Bulk  Modulus (GPa)     =     262.32443     262.32443     262.32443
  Shear Modulus (GPa)     =     140.69316     151.63897     146.16606
-------------------------------------------------------------------------------
  Velocity S-wave (km/s)  =       6.26621       6.50539       6.38692
  Velocity P-wave (km/s)  =      11.20556      11.38585      11.29607
-------------------------------------------------------------------------------
  Compressibility (1/GPa) =    0.00381207
-------------------------------------------------------------------------------
  Stress axis :                     x             y             z
-------------------------------------------------------------------------------
  Youngs Moduli (GPa)     =     276.52509     276.52509     276.52509
-------------------------------------------------------------------------------
  Poissons Ratio (x)      =                     0.32431       0.32431
  Poissons Ratio (y)      =       0.32431                     0.32431
  Poissons Ratio (z)      =       0.32431       0.32431
-------------------------------------------------------------------------------


  Piezoelectric Strain Matrix: (Units=C/m**2)

-------------------------------------------------------------------------------
  Indices      1         2         3         4         5         6    
-------------------------------------------------------------------------------
       x     0.00000   0.00000   0.00000   0.00000   0.00000  -0.00000
       y    -0.00000   0.00000  -0.00000   0.00000   0.00000   0.00000
       z     0.00000   0.00000   0.00000  -0.00000   0.00000   0.00000
-------------------------------------------------------------------------------


  Piezoelectric Stress Matrix: (Units=10**-11 C/N)

-------------------------------------------------------------------------------
  Indices      1         2         3         4         5         6    
-------------------------------------------------------------------------------
       x     0.00000  -0.00000  -0.00000   0.00000   0.00000  -0.00000
       y    -0.00000   0.00000  -0.00000   0.00000   0.00000   0.00000
       z    -0.00000  -0.00000   0.00000  -0.00000   0.00000   0.00000
-------------------------------------------------------------------------------


  Static dielectric constant tensor : 

-------------------------------------------------------------------------------
              x         y         z
-------------------------------------------------------------------------------
       x     9.35941   0.00000  -0.00000
       y     0.00000   9.35941  -0.00000
       z    -0.00000  -0.00000   9.35941
--------------------------------------------------------------------------------

  High frequency dielectric constant tensor : 

-------------------------------------------------------------------------------
              x         y         z
-------------------------------------------------------------------------------
       x     2.19527   0.00000  -0.00000
       y     0.00000   2.19527  -0.00000
       z    -0.00000  -0.00000   2.19527
-------------------------------------------------------------------------------

  Static refractive indices : 

-------------------------------------------------------------------------------
    1 =    3.05932      2 =    3.05932      3 =    3.05932
-------------------------------------------------------------------------------

  High frequency refractive indices : 

-------------------------------------------------------------------------------
    1 =    1.48165      2 =    1.48165      3 =    1.48165
-------------------------------------------------------------------------------


  Time to end of properties =       0.0062 seconds

********************************************************************************
*  Defect calculation for configuration   1 :                                  *
********************************************************************************

  Total number of defects =      3

  Total charge on defect  =  -2.00

  Defect centre is at   0.2500   0.2500   0.0000  Frac

  Region 1 radius =   4.0000      Number of ions =     53

  Region 2 radius =  10.0000      Number of ions =    648

  Region 2a mode = 4 : screened electrostatics due to region 1 
                       neglect correction to region 1 forces from 2a
                       region 2a displacements based on defects only

  Region 2a ions will only interact with defects in region 1

  Vacancies:

--------------------------------------------------------------------------------
    Specification type     Symbol/Number         x          y          z
--------------------------------------------------------------------------------
    Fractional                               0.000000   0.000000   0.000000
    Fractional                               0.500000   0.500000   0.000000
--------------------------------------------------------------------------------

  Interstitials:

--------------------------------------------------------------------------------
    Specification type     Symbol/Number         x          y          z
--------------------------------------------------------------------------------
    Atom/Fractional         Mg               0.200000   0.300000   0.000000
--------------------------------------------------------------------------------


  Region 1 (Absolute coordinates) :

--------------------------------------------------------------------------------
   No.   Atomic       x            y             z         Charge   Occupancy
         Label      (Angs)       (Angs)        (Angs)        (e)    
--------------------------------------------------------------------------------
     1  Mg    c      0.8424 *     1.2636 *     0.0000 *    2.00000    1.00000
     2  O     c      2.1060 *     0.0000 *     0.0000 *    0.86902    1.00000
     3  O     c      0.0000 *     2.1060 *     0.0000 *    0.86902    1.00000
     4  O     c      2.1060 *     2.1060 *    -2.1060 *    0.86902    1.00000
     5  O     c      2.1060 *     2.1060 *     2.1060 *    0.86902    1.00000
     6  O     c      0.0000 *     0.0000 *    -2.1060 *    0.86902    1.00000
     7  O     c      0.0000 *     0.0000 *     2.1060 *    0.86902    1.00000
     8  Mg    c      0.0000 *     2.1060 *    -2.1060 *    2.00000    1.00000
     9  Mg    c      0.0000 *     2.1060 *     2.1060 *    2.00000    1.00000
    10  Mg    c      2.1060 *     0.0000 *    -2.1060 *    2.00000    1.00000
    11  Mg    c      2.1060 *     0.0000 *     2.1060 *    2.00000    1.00000
    12  O     c      2.1060 *     4.2120 *     0.0000 *    0.86902    1.00000
    13  O     c     -2.1060 *     0.0000 *     0.0000 *    0.86902    1.00000
    14  O     c      0.0000 *    -2.1060 *     0.0000 *    0.86902    1.00000
    15  O     c      4.2120 *     2.1060 *     0.0000 *    0.86902    1.00000
    16  Mg    c      0.0000 *     4.2120 *     0.0000 *    2.00000    1.00000
    17  Mg    c      4.2120 *     0.0000 *     0.0000 *    2.00000    1.00000
    18  Mg    c      2.1060 *    -2.1060 *     0.0000 *    2.00000    1.00000
    19  Mg    c     -2.1060 *     2.1060 *     0.0000 *    2.00000    1.00000
    20  O     c      2.1060 *    -2.1060 *    -2.1060 *    0.86902    1.00000
    21  O     c      2.1060 *    -2.1060 *     2.1060 *    0.86902    1.00000
    22  O     c     -2.1060 *     2.1060 *    -2.1060 *    0.86902    1.00000
    23  O     c     -2.1060 *     2.1060 *     2.1060 *    0.86902    1.00000
    24  O     c      0.0000 *     4.2120 *    -2.1060 *    0.86902    1.00000
    25  O     c      0.0000 *     4.2120 *     2.1060 *    0.86902    1.00000
    26  O     c      4.2120 *     0.0000 *    -2.1060 *    0.86902    1.00000
    27  O     c      4.2120 *     0.0000 *     2.1060 *    0.86902    1.00000
    28  Mg    c      0.0000 *    -2.1060 *    -2.1060 *    2.00000    1.00000
    29  Mg    c      0.0000 *    -2.1060 *     2.1060 *    2.00000    1.00000
    30  Mg    c      4.2120 *     2.1060 *    -2.1060 *    2.00000    1.00000
    31  Mg    c      4.2120 *     2.1060 *     2.1060 *    2.00000    1.00000
    32  Mg    c      2.1060 *     4.2120 *    -2.1060 *    2.00000    1.00000
    33  Mg    c      2.1060 *     4.2120 *     2.1060 *    2.00000    1.00000
    34  Mg    c     -2.1060 *     0.0000 *    -2.1060 *    2.00000    1.00000
    35  Mg    c     -2.1060 *     0.0000 *     2.1060 *    2.00000    1.00000
    36  O     s      2.1060 *     0.0000 *     0.0000 *   -2.86902    1.00000
    37  O     s      0.0000 *     2.1060 *     0.0000 *   -2.86902    1.00000
    38  O     s      2.1060 *     2.1060 *    -2.1060 *   -2.86902    1.00000
    39  O     s      2.1060 *     2.1060 *     2.1060 *   -2.86902    1.00000
    40  O     s      0.0000 *     0.0000 *    -2.1060 *   -2.86902    1.00000
    41  O     s      0.0000 *     0.0000 *     2.1060 *   -2.86902    1.00000
    42  O     s      2.1060 *     4.2120 *     0.0000 *   -2.86902    1.00000
    43  O     s     -2.1060 *     0.0000 *     0.0000 *   -2.86902    1.00000
    44  O     s      0.0000 *    -2.1060 *     0.0000 *   -2.86902    1.00000
    45  O     s      4.2120 *     2.1060 *     0.0000 *   -2.86902    1.00000
    46  O     s      2.1060 *    -2.1060 *    -2.1060 *   -2.86902    1.00000
    47  O     s      2.1060 *    -2.1060 *     2.1060 *   -2.86902    1.00000
    48  O     s     -2.1060 *     2.1060 *    -2.1060 *   -2.86902    1.00000
    49  O     s     -2.1060 *     2.1060 *     2.1060 *   -2.86902    1.00000
    50  O     s      0.0000 *     4.2120 *    -2.1060 *   -2.86902    1.00000
    51  O     s      0.0000 *     4.2120 *     2.1060 *   -2.86902    1.00000
    52  O     s      4.2120 *     0.0000 *    -2.1060 *   -2.86902    1.00000
    53  O     s      4.2120 *     0.0000 *     2.1060 *   -2.86902    1.00000
--------------------------------------------------------------------------------



  Region 1 (Relative to defect centre) :

--------------------------------------------------------------------------------
   No.   Atomic       x            y             z         Charge   Occupancy
         Label      (Angs)       (Angs)        (Angs)        (e)    
--------------------------------------------------------------------------------
     1  Mg    c     -0.2106 *     0.2106 *     0.0000 *    2.00000    1.00000
     2  O     c      1.0530 *    -1.0530 *     0.0000 *    0.86902    1.00000
     3  O     c     -1.0530 *     1.0530 *     0.0000 *    0.86902    1.00000
     4  O     c      1.0530 *     1.0530 *    -2.1060 *    0.86902    1.00000
     5  O     c      1.0530 *     1.0530 *     2.1060 *    0.86902    1.00000
     6  O     c     -1.0530 *    -1.0530 *    -2.1060 *    0.86902    1.00000
     7  O     c     -1.0530 *    -1.0530 *     2.1060 *    0.86902    1.00000
     8  Mg    c     -1.0530 *     1.0530 *    -2.1060 *    2.00000    1.00000
     9  Mg    c     -1.0530 *     1.0530 *     2.1060 *    2.00000    1.00000
    10  Mg    c      1.0530 *    -1.0530 *    -2.1060 *    2.00000    1.00000
    11  Mg    c      1.0530 *    -1.0530 *     2.1060 *    2.00000    1.00000
    12  O     c      1.0530 *     3.1590 *     0.0000 *    0.86902    1.00000
    13  O     c     -3.1590 *    -1.0530 *     0.0000 *    0.86902    1.00000
    14  O     c     -1.0530 *    -3.1590 *     0.0000 *    0.86902    1.00000
    15  O     c      3.1590 *     1.0530 *     0.0000 *    0.86902    1.00000
    16  Mg    c     -1.0530 *     3.1590 *     0.0000 *    2.00000    1.00000
    17  Mg    c      3.1590 *    -1.0530 *     0.0000 *    2.00000    1.00000
    18  Mg    c      1.0530 *    -3.1590 *     0.0000 *    2.00000    1.00000
    19  Mg    c     -3.1590 *     1.0530 *     0.0000 *    2.00000    1.00000
    20  O     c      1.0530 *    -3.1590 *    -2.1060 *    0.86902    1.00000
    21  O     c      1.0530 *    -3.1590 *     2.1060 *    0.86902    1.00000
    22  O     c     -3.1590 *     1.0530 *    -2.1060 *    0.86902    1.00000
    23  O     c     -3.1590 *     1.0530 *     2.1060 *    0.86902    1.00000
    24  O     c     -1.0530 *     3.1590 *    -2.1060 *    0.86902    1.00000
    25  O     c     -1.0530 *     3.1590 *     2.1060 *    0.86902    1.00000
    26  O     c      3.1590 *    -1.0530 *    -2.1060 *    0.86902    1.00000
    27  O     c      3.1590 *    -1.0530 *     2.1060 *    0.86902    1.00000
    28  Mg    c     -1.0530 *    -3.1590 *    -2.1060 *    2.00000    1.00000
    29  Mg    c     -1.0530 *    -3.1590 *     2.1060 *    2.00000    1.00000
    30  Mg    c      3.1590 *     1.0530 *    -2.1060 *    2.00000    1.00000
    31  Mg    c      3.1590 *     1.0530 *     2.1060 *    2.00000    1.00000
    32  Mg    c      1.0530 *     3.1590 *    -2.1060 *    2.00000    1.00000
    33  Mg    c      1.0530 *     3.1590 *     2.1060 *    2.00000    1.00000
    34  Mg    c     -3.1590 *    -1.0530 *    -2.1060 *    2.00000    1.00000
    35  Mg    c     -3.1590 *    -1.0530 *     2.1060 *    2.00000    1.00000
    36  O     s      1.0530 *    -1.0530 *     0.0000 *   -2.86902    1.00000
    37  O     s     -1.0530 *     1.0530 *     0.0000 *   -2.86902    1.00000
    38  O     s      1.0530 *     1.0530 *    -2.1060 *   -2.86902    1.00000
    39  O     s      1.0530 *     1.0530 *     2.1060 *   -2.86902    1.00000
    40  O     s     -1.0530 *    -1.0530 *    -2.1060 *   -2.86902    1.00000
    41  O     s     -1.0530 *    -1.0530 *     2.1060 *   -2.86902    1.00000
    42  O     s      1.0530 *     3.1590 *     0.0000 *   -2.86902    1.00000
    43  O     s     -3.1590 *    -1.0530 *     0.0000 *   -2.86902    1.00000
    44  O     s     -1.0530 *    -3.1590 *     0.0000 *   -2.86902    1.00000
    45  O     s      3.1590 *     1.0530 *     0.0000 *   -2.86902    1.00000
    46  O     s      1.0530 *    -3.1590 *    -2.1060 *   -2.86902    1.00000
    47  O     s      1.0530 *    -3.1590 *     2.1060 *   -2.86902    1.00000
    48  O     s     -3.1590 *     1.0530 *    -2.1060 *   -2.86902    1.00000
    49  O     s     -3.1590 *     1.0530 *     2.1060 *   -2.86902    1.00000
    50  O     s     -1.0530 *     3.1590 *    -2.1060 *   -2.86902    1.00000
    51  O     s     -1.0530 *     3.1590 *     2.1060 *   -2.86902    1.00000
    52  O     s      3.1590 *    -1.0530 *    -2.1060 *   -2.86902    1.00000
    53  O     s      3.1590 *    -1.0530 *     2.1060 *   -2.86902    1.00000
--------------------------------------------------------------------------------

  Components of defect energy : 

--------------------------------------------------------------------------------
  Region 1 - region 1                   =     49.01703588 eV
  Region 1 - region 2a (unrelaxed)      =      0.61256255 eV
  Region 1 - 2a (relaxed - correction)  =     -7.17572847 eV
  Region 1 (Total)                      =     42.45386995 eV
  Region 2a                             =      3.58724709 eV
  Region 2b                             =     -2.53878863 eV
--------------------------------------------------------------------------------
  Total defect energy                   =     43.50232842 eV
--------------------------------------------------------------------------------

  Largest displacement in region 2 =   0.0517 Angstroms


  Number of variables =      159

  Maximum number of calculations  =        1000
  Maximum Hessian update interval =           1
  Maximum step size               =   1.0000000
  Maximum parameter tolerance     =   0.0000100
  Maximum function  tolerance     =   0.0000100
  Maximum gradient  tolerance     =   0.0010000

  Symmetry not applied to optimisation

  RFO method to be used

  Transition state search of order   1

  Start of defect optimisation :

  Cycle:      0 Defect Energy:  43.502328  Gnorm:     0.488892  CPU:    0.068
  ** Hessian has wrong structure
  ** Imaginary eigenvectors =   2
  Cycle:      1 Defect Energy:  35.955049  Gnorm:     0.238118  CPU:    0.276
  ** Hessian has wrong structure
  ** Imaginary eigenvectors =   2
  Cycle:      2 Defect Energy:  31.062266  Gnorm:     0.158269  CPU:    0.534
  ** Hessian has required structure
  Cycle:      3 Defect Energy:  29.260230  Gnorm:     0.115008  CPU:    0.614
  ** Hessian has required structure
  Cycle:      4 Defect Energy:  28.150040  Gnorm:     0.082865  CPU:    0.693
  ** Hessian has required structure
  Cycle:      5 Defect Energy:  27.495947  Gnorm:     0.059237  CPU:    0.771
  ** Hessian has required structure
  Cycle:      6 Defect Energy:  27.137082  Gnorm:     0.042069  CPU:    0.849
  ** Hessian has required structure
  Cycle:      7 Defect Energy:  26.948597  Gnorm:     0.029723  CPU:    0.929
  ** Hessian has required structure
  Cycle:      8 Defect Energy:  26.860002  Gnorm:     0.020930  CPU:    1.008
  ** Hessian has required structure
  Cycle:      9 Defect Energy:  26.821259  Gnorm:     0.014706  CPU:    1.086
  ** Hessian has required structure
  Cycle:     10 Defect Energy:  26.806677  Gnorm:     0.010320  CPU:    1.164
  ** Hessian has required structure
  Cycle:     11 Defect Energy:  26.803025  Gnorm:     0.007236  CPU:    1.243
  ** Hessian has required structure
  Cycle:     12 Defect Energy:  26.803994  Gnorm:     0.005071  CPU:    1.323
  ** Hessian has required structure
  Cycle:     13 Defect Energy:  26.806265  Gnorm:     0.003553  CPU:    1.402
  ** Hessian has required structure
  Cycle:     14 Defect Energy:  26.808707  Gnorm:     0.002488  CPU:    1.479
  ** Hessian has required structure
  Cycle:     15 Defect Energy:  26.810840  Gnorm:     0.001742  CPU:    1.557
  ** Hessian has required structure
  Cycle:     16 Defect Energy:  26.812543  Gnorm:     0.001220  CPU:    1.636
  ** Hessian has required structure
  Cycle:     17 Defect Energy:  26.813838  Gnorm:     0.000854  CPU:    1.714
  ** Hessian has required structure
  Cycle:     18 Defect Energy:  26.814795  Gnorm:     0.000598  CPU:    1.791
  ** Hessian has required structure
  Cycle:     19 Defect Energy:  26.815490  Gnorm:     0.000419  CPU:    1.869
  ** Hessian has required structure
  Cycle:     20 Defect Energy:  26.815988  Gnorm:     0.000293  CPU:    1.947
  ** Hessian has required structure
  Cycle:     21 Defect Energy:  26.816344  Gnorm:     0.000205  CPU:    2.026
  ** Hessian has required structure
  Cycle:     22 Defect Energy:  26.816595  Gnorm:     0.000144  CPU:    2.104
  ** Hessian has required structure
  Cycle:     23 Defect Energy:  26.816772  Gnorm:     0.000101  CPU:    2.182
  ** Hessian has required structure
  Cycle:     24 Defect Energy:  26.816897  Gnorm:     0.000070  CPU:    2.260
  ** Hessian has required structure
  Cycle:     25 Defect Energy:  26.816985  Gnorm:     0.000049  CPU:    2.343
  ** Hessian has required structure
  Cycle:     26 Defect Energy:  26.817047  Gnorm:     0.000034  CPU:    2.421
  ** Hessian has required structure
  Cycle:     27 Defect Energy:  26.817090  Gnorm:     0.000024  CPU:    2.498
  ** Hessian has required structure
  Cycle:     28 Defect Energy:  26.817120  Gnorm:     0.000017  CPU:    2.577
  ** Hessian has required structure
  Cycle:     29 Defect Energy:  26.817142  Gnorm:     0.000012  CPU:    2.655
  ** Hessian has required structure
  Cycle:     30 Defect Energy:  26.817157  Gnorm:     0.000008  CPU:    2.733
  ** Hessian has required structure
  Cycle:     31 Defect Energy:  26.817167  Gnorm:     0.000006  CPU:    2.811
  ** Hessian has required structure


  **** Optimisation achieved ****


  Final defect energy  =       26.81717424
  Final defect Gnorm   =        0.00000406

  Components of defect energy : 

--------------------------------------------------------------------------------
  Region 1 - region 1                   =     29.36233318 eV
  Region 1 - region 2a (unrelaxed)      =      2.66837207 eV
  Region 1 - 2a (relaxed - correction)  =     -5.35174978 eV
  Region 1 (Total)                      =     26.67895546 eV
  Region 2a                             =      2.67553323 eV
  Region 2b                             =     -2.53731445 eV
--------------------------------------------------------------------------------
  Total defect energy                   =     26.81717424 eV
--------------------------------------------------------------------------------

  Largest displacement in region 2 =   0.0515 Angstroms

  Final coordinates of region 1 :

--------------------------------------------------------------------------------
   No.  Atomic        x           y           z          Radius      Charge
        Label       (Angs)      (Angs)      (Angs)       (Angs)       (e) 
--------------------------------------------------------------------------------
     1  Mg    c     1.052998    1.053002   -0.000029    0.000000    2.000000
     2  O     c     2.304048   -0.198048    0.000004    0.000000    0.869020
     3  O     c    -0.198052    2.304052    0.000000    0.000000    0.869020
     4  O     c     2.051240    2.051238   -2.134194    0.000000    0.869020
     5  O     c     2.051240    2.051242    2.134197    0.000000    0.869020
     6  O     c     0.054762    0.054760   -2.134194    0.000000    0.869020
     7  O     c     0.054758    0.054760    2.134197    0.000000    0.869020
     8  Mg    c    -0.027996    2.133996   -2.152302    0.000000    2.000000
     9  Mg    c    -0.027992    2.133992    2.152296    0.000000    2.000000
    10  Mg    c     2.133997   -0.027997   -2.152309    0.000000    2.000000
    11  Mg    c     2.133990   -0.027990    2.152302    0.000000    2.000000
    12  O     c     2.104228    4.341053   -0.000000    0.000000    0.869020
    13  O     c    -2.235053    0.001772   -0.000000    0.000000    0.869020
    14  O     c     0.001773   -2.235053    0.000000    0.000000    0.869020
    15  O     c     4.341053    2.104227    0.000000    0.000000    0.869020
    16  Mg    c     0.037665    4.214226    0.000001    0.000000    2.000000
    17  Mg    c     4.214225    0.037665    0.000003    0.000000    2.000000
    18  Mg    c     2.068335   -2.108225    0.000003    0.000000    2.000000
    19  Mg    c    -2.108226    2.068335    0.000001    0.000000    2.000000
    20  O     c     2.127731   -2.138338   -2.154079    0.000000    0.869020
    21  O     c     2.127730   -2.138339    2.154079    0.000000    0.869020
    22  O     c    -2.138339    2.127730   -2.154079    0.000000    0.869020
    23  O     c    -2.138339    2.127731    2.154077    0.000000    0.869020
    24  O     c    -0.021730    4.244339   -2.154079    0.000000    0.869020
    25  O     c    -0.021731    4.244339    2.154077    0.000000    0.869020
    26  O     c     4.244338   -0.021731   -2.154079    0.000000    0.869020
    27  O     c     4.244339   -0.021730    2.154079    0.000000    0.869020
    28  Mg    c     0.009947   -2.017460   -1.996574    0.000000    2.000000
    29  Mg    c     0.009946   -2.017458    1.996575    0.000000    2.000000
    30  Mg    c     4.123460    2.096053   -1.996574    0.000000    2.000000
    31  Mg    c     4.123458    2.096054    1.996575    0.000000    2.000000
    32  Mg    c     2.096054    4.123460   -1.996574    0.000000    2.000000
    33  Mg    c     2.096053    4.123458    1.996576    0.000000    2.000000
    34  Mg    c    -2.017460    0.009946   -1.996574    0.000000    2.000000
    35  Mg    c    -2.017458    0.009947    1.996576    0.000000    2.000000
    36  O     s     2.286999   -0.180999    0.000003    0.000000   -2.869020
    37  O     s    -0.181002    2.287002    0.000000    0.000000   -2.869020
    38  O     s     2.050725    2.050722   -2.155221    0.000000   -2.869020
    39  O     s     2.050726    2.050728    2.155226    0.000000   -2.869020
    40  O     s     0.055278    0.055275   -2.155221    0.000000   -2.869020
    41  O     s     0.055272    0.055274    2.155226    0.000000   -2.869020
    42  O     s     2.100415    4.371618   -0.000001    0.000000   -2.869020
    43  O     s    -2.265618    0.005585   -0.000001    0.000000   -2.869020
    44  O     s     0.005586   -2.265618   -0.000000    0.000000   -2.869020
    45  O     s     4.371618    2.100414   -0.000000    0.000000   -2.869020
    46  O     s     2.130584   -2.139222   -2.159534    0.000000   -2.869020
    47  O     s     2.130583   -2.139224    2.159534    0.000000   -2.869020
    48  O     s    -2.139223    2.130583   -2.159534    0.000000   -2.869020
    49  O     s    -2.139224    2.130583    2.159532    0.000000   -2.869020
    50  O     s    -0.024583    4.245223   -2.159534    0.000000   -2.869020
    51  O     s    -0.024583    4.245224    2.159532    0.000000   -2.869020
    52  O     s     4.245222   -0.024584   -2.159534    0.000000   -2.869020
    53  O     s     4.245224   -0.024583    2.159534    0.000000   -2.869020
--------------------------------------------------------------------------------

  Final coordinates of region 1 relative to defect centre :

--------------------------------------------------------------------------------
   No.  Atomic        x           y           z          Charge
        Label       (Angs)      (Angs)      (Angs)         (e) 
--------------------------------------------------------------------------------
     1  Mg    c    -0.000002    0.000002   -0.000029    2.000000
     2  O     c     1.251048   -1.251048    0.000004    0.869020
     3  O     c    -1.251052    1.251052    0.000000    0.869020
     4  O     c     0.998240    0.998238   -2.134194    0.869020
     5  O     c     0.998240    0.998242    2.134197    0.869020
     6  O     c    -0.998238   -0.998240   -2.134194    0.869020
     7  O     c    -0.998242   -0.998240    2.134197    0.869020
     8  Mg    c    -1.080996    1.080996   -2.152302    2.000000
     9  Mg    c    -1.080992    1.080992    2.152296    2.000000
    10  Mg    c     1.080997   -1.080997   -2.152309    2.000000
    11  Mg    c     1.080990   -1.080990    2.152302    2.000000
    12  O     c     1.051228    3.288053   -0.000000    0.869020
    13  O     c    -3.288053   -1.051228   -0.000000    0.869020
    14  O     c    -1.051227   -3.288053    0.000000    0.869020
    15  O     c     3.288053    1.051227    0.000000    0.869020
    16  Mg    c    -1.015335    3.161226    0.000001    2.000000
    17  Mg    c     3.161225   -1.015335    0.000003    2.000000
    18  Mg    c     1.015335   -3.161225    0.000003    2.000000
    19  Mg    c    -3.161226    1.015335    0.000001    2.000000
    20  O     c     1.074731   -3.191338   -2.154079    0.869020
    21  O     c     1.074730   -3.191339    2.154079    0.869020
    22  O     c    -3.191339    1.074730   -2.154079    0.869020
    23  O     c    -3.191339    1.074731    2.154077    0.869020
    24  O     c    -1.074730    3.191339   -2.154079    0.869020
    25  O     c    -1.074731    3.191339    2.154077    0.869020
    26  O     c     3.191338   -1.074731   -2.154079    0.869020
    27  O     c     3.191339   -1.074730    2.154079    0.869020
    28  Mg    c    -1.043053   -3.070460   -1.996574    2.000000
    29  Mg    c    -1.043054   -3.070458    1.996575    2.000000
    30  Mg    c     3.070460    1.043053   -1.996574    2.000000
    31  Mg    c     3.070458    1.043054    1.996575    2.000000
    32  Mg    c     1.043054    3.070460   -1.996574    2.000000
    33  Mg    c     1.043053    3.070458    1.996576    2.000000
    34  Mg    c    -3.070460   -1.043054   -1.996574    2.000000
    35  Mg    c    -3.070458   -1.043053    1.996576    2.000000
    36  O     s     1.233999   -1.233999    0.000003   -2.869020
    37  O     s    -1.234002    1.234002    0.000000   -2.869020
    38  O     s     0.997725    0.997722   -2.155221   -2.869020
    39  O     s     0.997726    0.997728    2.155226   -2.869020
    40  O     s    -0.997722   -0.997725   -2.155221   -2.869020
    41  O     s    -0.997728   -0.997726    2.155226   -2.869020
    42  O     s     1.047415    3.318618   -0.000001   -2.869020
    43  O     s    -3.318618   -1.047415   -0.000001   -2.869020
    44  O     s    -1.047414   -3.318618   -0.000000   -2.869020
    45  O     s     3.318618    1.047414   -0.000000   -2.869020
    46  O     s     1.077584   -3.192222   -2.159534   -2.869020
    47  O     s     1.077583   -3.192224    2.159534   -2.869020
    48  O     s    -3.192223    1.077583   -2.159534   -2.869020
    49  O     s    -3.192224    1.077583    2.159532   -2.869020
    50  O     s    -1.077583    3.192223   -2.159534   -2.869020
    51  O     s    -1.077583    3.192224    2.159532   -2.869020
    52  O     s     3.192222   -1.077584   -2.159534   -2.869020
    53  O     s     3.192224   -1.077583    2.159534   -2.869020
--------------------------------------------------------------------------------


  Final derivatives for region 1 :

--------------------------------------------------------------------------------
   No.  Atomic          x             y             z            Radius
        Label       (eV/Angs)     (eV/Angs)     (eV/Angs)       (eV/Angs)
--------------------------------------------------------------------------------
     1  Mg    c      -0.000057      0.000057     -0.000120      0.000000
     2  O     c      -0.000011      0.000011      0.000019      0.000000
     3  O     c      -0.000015      0.000015     -0.000097      0.000000
     4  O     c       0.000008      0.000001     -0.000034      0.000000
     5  O     c      -0.000018     -0.000002      0.000017      0.000000
     6  O     c      -0.000001     -0.000008     -0.000034      0.000000
     7  O     c       0.000002      0.000018      0.000017      0.000000
     8  Mg    c       0.000035     -0.000035      0.000097      0.000000
     9  Mg    c      -0.000020      0.000020     -0.000061      0.000000
    10  Mg    c      -0.000016      0.000016     -0.000031      0.000000
    11  Mg    c       0.000028     -0.000028      0.000050      0.000000
    12  O     c      -0.000004      0.000029      0.000007      0.000000
    13  O     c      -0.000029      0.000004      0.000007      0.000000
    14  O     c       0.000002     -0.000032      0.000007      0.000000
    15  O     c       0.000032     -0.000002      0.000007      0.000000
    16  Mg    c      -0.000050      0.000027     -0.000027      0.000000
    17  Mg    c       0.000049     -0.000050     -0.000006      0.000000
    18  Mg    c       0.000050     -0.000049     -0.000006      0.000000
    19  Mg    c      -0.000027      0.000050     -0.000027      0.000000
    20  O     c       0.000006     -0.000006     -0.000000      0.000000
    21  O     c       0.000003     -0.000004      0.000006      0.000000
    22  O     c      -0.000013      0.000003     -0.000003      0.000000
    23  O     c       0.000003      0.000004     -0.000006      0.000000
    24  O     c      -0.000003      0.000013     -0.000003      0.000000
    25  O     c      -0.000004     -0.000003     -0.000006      0.000000
    26  O     c       0.000006     -0.000006     -0.000000      0.000000
    27  O     c       0.000004     -0.000003      0.000006      0.000000
    28  Mg    c      -0.000003     -0.000052     -0.000072      0.000000
    29  Mg    c      -0.000003     -0.000064      0.000061      0.000000
    30  Mg    c       0.000052      0.000003     -0.000072      0.000000
    31  Mg    c       0.000064      0.000003      0.000061      0.000000
    32  Mg    c      -0.000008      0.000050     -0.000068      0.000000
    33  Mg    c      -0.000001      0.000068      0.000057      0.000000
    34  Mg    c      -0.000050      0.000008     -0.000068      0.000000
    35  Mg    c      -0.000068      0.000001      0.000057      0.000000
    36  O     s      -0.000086      0.000086      0.000027      0.000000
    37  O     s       0.000069     -0.000069      0.000156      0.000000
    38  O     s       0.000066      0.000017      0.000131      0.000000
    39  O     s       0.000010      0.000010     -0.000134      0.000000
    40  O     s      -0.000017     -0.000066      0.000131      0.000000
    41  O     s      -0.000010     -0.000010     -0.000134      0.000000
    42  O     s       0.000023     -0.000161      0.000011      0.000000
    43  O     s       0.000161     -0.000023      0.000011      0.000000
    44  O     s       0.000001      0.000171      0.000009      0.000000
    45  O     s      -0.000171     -0.000001      0.000009      0.000000
    46  O     s      -0.000029      0.000040      0.000050      0.000000
    47  O     s      -0.000032      0.000044     -0.000038      0.000000
    48  O     s       0.000022     -0.000031      0.000039      0.000000
    49  O     s       0.000050     -0.000033     -0.000033      0.000000
    50  O     s       0.000031     -0.000022      0.000039      0.000000
    51  O     s       0.000033     -0.000050     -0.000033      0.000000
    52  O     s      -0.000040      0.000029      0.000050      0.000000
    53  O     s      -0.000044      0.000032     -0.000038      0.000000
--------------------------------------------------------------------------------


  Time to end of optimisation  =        2.8889 seconds


  Peak dynamic memory used =       1.28 MB 


  Timing analysis for GULP :

--------------------------------------------------------------------------------
  Task / Subroutine                                          Time (Seconds)
--------------------------------------------------------------------------------
  Calculation of reciprocal space energy and derivatives          0.0003
  Calculation of real space energy and derivatives                0.0021
  Calculation for region 1 energy and derivatives (2-b)           0.7691
  Calculation for region 2a energy                                1.2724
  Calculation for region 2b energy                                0.0071
--------------------------------------------------------------------------------
  Total CPU time                                                  2.8891
--------------------------------------------------------------------------------


  Job Finished at 09:00.40 29th July       2013                               

