********************************************************************************
*                       GENERAL UTILITY LATTICE PROGRAM                        *
*                                 Julian Gale                                  *
*                      Nanochemistry Research Institute                        *
*                           Department of Chemistry                            *
*                    Curtin University, Western Australia                      *
********************************************************************************
* Version = 4.1.3 * Last modified =   8th October 2013                         *
********************************************************************************
*  optimise     - perform optimisation run                                     *
*  conp         - constant pressure calculation                                *
*  phonon       - calculate phonons for final geometry                         *
*  eigenvectors - output phonon eigenvectors                                   *
*  nosymmetry   - turn off symmetry after initial structure generation         *
*  full         - generate full unit cell when symmetry is removed             *
*  nofrequency  - suppress frequency output after phonon calculation           *
*  noksymmetry  - do not use Brillouin zone symmetry when generating k points  *
*  makeEigenArrays - store all eigenvectors and frequencies after calculation  *
*  PDF          - calculate Pair Distribution Functions                        *
*  PDFcut  - use frequency cut-offs in PDF as set in neutron block
********************************************************************************
* MgO potentials from P.S.Baram and S.C.Parker Phil Mag B 73 1 49 (1996)       *
* Generate PDFs for MgO using only phonons contributions > wmin                *
* PDF code written by Elizabeth Cope (beth.cope@cantab.net)                    *
*                                                                              *
* [Phonon information suppressed                                               *
* (remove nofreq to output standard information, add arrayfreq to output from  *
********************************************************************************


  Job Started  at 11:00.29  8th October    2013                               

  Number of CPUs =     1

  Host name      = M-A0002884.local                        


  Total number of configurations input =   1

********************************************************************************
*  Input for Configuration =   1                                               *
********************************************************************************

  Formula = Mg4O4                                                       

  Number of irreducible atoms/shells =      12


  Total number atoms/shells =      12

  Dimensionality = 3               :  Bulk   



  Cartesian lattice vectors (Angstroms) :

        4.200000    0.000000    0.000000
        0.000000    4.200000    0.000000
        0.000000    0.000000    4.200000

  Cell parameters (Angstroms/Degrees):

  a =       4.2000    alpha =  90.0000
  b =       4.2000    beta  =  90.0000
  c =       4.2000    gamma =  90.0000

  Initial cell volume =          74.088000 Angs**3

  Shrinking factors =     10    10    10

  Temperature of configuration =  290.0     K 

  Pressure of configuration =         0.000 GPa 

  Fractional coordinates of asymmetric unit :

--------------------------------------------------------------------------------
   No.  Atomic       x           y          z         Charge      Occupancy
        Label      (Frac)      (Frac)     (Frac)        (e)         (Frac)  
--------------------------------------------------------------------------------
      1 Mg    c    0.000000    0.000000    0.000000     2.00000    1.000000    
      2 Mg    c    0.000000 *  0.500000 *  0.500000 *   2.00000    1.000000    
      3 Mg    c    0.500000 *  0.000000 *  0.500000 *   2.00000    1.000000    
      4 Mg    c    0.500000 *  0.500000 *  0.000000 *   2.00000    1.000000    
      5 O     c    0.500000 *  0.500000 *  0.500000 *   0.84819    1.000000    
      6 O     c    0.500000 *  0.000000 *  0.000000 *   0.84819    1.000000    
      7 O     c    0.000000 *  0.500000 *  0.000000 *   0.84819    1.000000    
      8 O     c    0.000000 *  0.000000 *  0.500000 *   0.84819    1.000000    
      9 O     s    0.500000 *  0.500000 *  0.500000 *  -2.84819    1.000000    
     10 O     s    0.500000 *  0.000000 *  0.000000 *  -2.84819    1.000000    
     11 O     s    0.000000 *  0.500000 *  0.000000 *  -2.84819    1.000000    
     12 O     s    0.000000 *  0.000000 *  0.500000 *  -2.84819    1.000000    
--------------------------------------------------------------------------------


  PDF uses Gamma centred Brillouin zone with no symmetry reduction

  Brillouin zone sampling points :

--------------------------------------------------------------------------------
  Point number          x          y          z            Weight
--------------------------------------------------------------------------------
        1          -0.450000  -0.450000  -0.450000         0.0010
        2          -0.450000  -0.450000  -0.350000         0.0010
        3          -0.450000  -0.450000  -0.250000         0.0010
        4          -0.450000  -0.450000  -0.150000         0.0010
        5          -0.450000  -0.450000  -0.050000         0.0010
        6          -0.450000  -0.450000   0.050000         0.0010
        7          -0.450000  -0.450000   0.150000         0.0010
        8          -0.450000  -0.450000   0.250000         0.0010
        9          -0.450000  -0.450000   0.350000         0.0010
       10          -0.450000  -0.450000   0.450000         0.0010
       11          -0.450000  -0.350000  -0.450000         0.0010
       12          -0.450000  -0.350000  -0.350000         0.0010
       13          -0.450000  -0.350000  -0.250000         0.0010
       14          -0.450000  -0.350000  -0.150000         0.0010
       15          -0.450000  -0.350000  -0.050000         0.0010
       16          -0.450000  -0.350000   0.050000         0.0010
       17          -0.450000  -0.350000   0.150000         0.0010
       18          -0.450000  -0.350000   0.250000         0.0010
       19          -0.450000  -0.350000   0.350000         0.0010
       20          -0.450000  -0.350000   0.450000         0.0010
       21          -0.450000  -0.250000  -0.450000         0.0010
       22          -0.450000  -0.250000  -0.350000         0.0010
       23          -0.450000  -0.250000  -0.250000         0.0010
       24          -0.450000  -0.250000  -0.150000         0.0010
       25          -0.450000  -0.250000  -0.050000         0.0010
       26          -0.450000  -0.250000   0.050000         0.0010
       27          -0.450000  -0.250000   0.150000         0.0010
       28          -0.450000  -0.250000   0.250000         0.0010
       29          -0.450000  -0.250000   0.350000         0.0010
       30          -0.450000  -0.250000   0.450000         0.0010
       31          -0.450000  -0.150000  -0.450000         0.0010
       32          -0.450000  -0.150000  -0.350000         0.0010
       33          -0.450000  -0.150000  -0.250000         0.0010
       34          -0.450000  -0.150000  -0.150000         0.0010
       35          -0.450000  -0.150000  -0.050000         0.0010
       36          -0.450000  -0.150000   0.050000         0.0010
       37          -0.450000  -0.150000   0.150000         0.0010
       38          -0.450000  -0.150000   0.250000         0.0010
       39          -0.450000  -0.150000   0.350000         0.0010
       40          -0.450000  -0.150000   0.450000         0.0010
       41          -0.450000  -0.050000  -0.450000         0.0010
       42          -0.450000  -0.050000  -0.350000         0.0010
       43          -0.450000  -0.050000  -0.250000         0.0010
       44          -0.450000  -0.050000  -0.150000         0.0010
       45          -0.450000  -0.050000  -0.050000         0.0010
       46          -0.450000  -0.050000   0.050000         0.0010
       47          -0.450000  -0.050000   0.150000         0.0010
       48          -0.450000  -0.050000   0.250000         0.0010
       49          -0.450000  -0.050000   0.350000         0.0010
       50          -0.450000  -0.050000   0.450000         0.0010
       51          -0.450000   0.050000  -0.450000         0.0010
       52          -0.450000   0.050000  -0.350000         0.0010
       53          -0.450000   0.050000  -0.250000         0.0010
       54          -0.450000   0.050000  -0.150000         0.0010
       55          -0.450000   0.050000  -0.050000         0.0010
       56          -0.450000   0.050000   0.050000         0.0010
       57          -0.450000   0.050000   0.150000         0.0010
       58          -0.450000   0.050000   0.250000         0.0010
       59          -0.450000   0.050000   0.350000         0.0010
       60          -0.450000   0.050000   0.450000         0.0010
       61          -0.450000   0.150000  -0.450000         0.0010
       62          -0.450000   0.150000  -0.350000         0.0010
       63          -0.450000   0.150000  -0.250000         0.0010
       64          -0.450000   0.150000  -0.150000         0.0010
       65          -0.450000   0.150000  -0.050000         0.0010
       66          -0.450000   0.150000   0.050000         0.0010
       67          -0.450000   0.150000   0.150000         0.0010
       68          -0.450000   0.150000   0.250000         0.0010
       69          -0.450000   0.150000   0.350000         0.0010
       70          -0.450000   0.150000   0.450000         0.0010
       71          -0.450000   0.250000  -0.450000         0.0010
       72          -0.450000   0.250000  -0.350000         0.0010
       73          -0.450000   0.250000  -0.250000         0.0010
       74          -0.450000   0.250000  -0.150000         0.0010
       75          -0.450000   0.250000  -0.050000         0.0010
       76          -0.450000   0.250000   0.050000         0.0010
       77          -0.450000   0.250000   0.150000         0.0010
       78          -0.450000   0.250000   0.250000         0.0010
       79          -0.450000   0.250000   0.350000         0.0010
       80          -0.450000   0.250000   0.450000         0.0010
       81          -0.450000   0.350000  -0.450000         0.0010
       82          -0.450000   0.350000  -0.350000         0.0010
       83          -0.450000   0.350000  -0.250000         0.0010
       84          -0.450000   0.350000  -0.150000         0.0010
       85          -0.450000   0.350000  -0.050000         0.0010
       86          -0.450000   0.350000   0.050000         0.0010
       87          -0.450000   0.350000   0.150000         0.0010
       88          -0.450000   0.350000   0.250000         0.0010
       89          -0.450000   0.350000   0.350000         0.0010
       90          -0.450000   0.350000   0.450000         0.0010
       91          -0.450000   0.450000  -0.450000         0.0010
       92          -0.450000   0.450000  -0.350000         0.0010
       93          -0.450000   0.450000  -0.250000         0.0010
       94          -0.450000   0.450000  -0.150000         0.0010
       95          -0.450000   0.450000  -0.050000         0.0010
       96          -0.450000   0.450000   0.050000         0.0010
       97          -0.450000   0.450000   0.150000         0.0010
       98          -0.450000   0.450000   0.250000         0.0010
       99          -0.450000   0.450000   0.350000         0.0010
      100          -0.450000   0.450000   0.450000         0.0010
      101          -0.350000  -0.450000  -0.450000         0.0010
      102          -0.350000  -0.450000  -0.350000         0.0010
      103          -0.350000  -0.450000  -0.250000         0.0010
      104          -0.350000  -0.450000  -0.150000         0.0010
      105          -0.350000  -0.450000  -0.050000         0.0010
      106          -0.350000  -0.450000   0.050000         0.0010
      107          -0.350000  -0.450000   0.150000         0.0010
      108          -0.350000  -0.450000   0.250000         0.0010
      109          -0.350000  -0.450000   0.350000         0.0010
      110          -0.350000  -0.450000   0.450000         0.0010
      111          -0.350000  -0.350000  -0.450000         0.0010
      112          -0.350000  -0.350000  -0.350000         0.0010
      113          -0.350000  -0.350000  -0.250000         0.0010
      114          -0.350000  -0.350000  -0.150000         0.0010
      115          -0.350000  -0.350000  -0.050000         0.0010
      116          -0.350000  -0.350000   0.050000         0.0010
      117          -0.350000  -0.350000   0.150000         0.0010
      118          -0.350000  -0.350000   0.250000         0.0010
      119          -0.350000  -0.350000   0.350000         0.0010
      120          -0.350000  -0.350000   0.450000         0.0010
      121          -0.350000  -0.250000  -0.450000         0.0010
      122          -0.350000  -0.250000  -0.350000         0.0010
      123          -0.350000  -0.250000  -0.250000         0.0010
      124          -0.350000  -0.250000  -0.150000         0.0010
      125          -0.350000  -0.250000  -0.050000         0.0010
      126          -0.350000  -0.250000   0.050000         0.0010
      127          -0.350000  -0.250000   0.150000         0.0010
      128          -0.350000  -0.250000   0.250000         0.0010
      129          -0.350000  -0.250000   0.350000         0.0010
      130          -0.350000  -0.250000   0.450000         0.0010
      131          -0.350000  -0.150000  -0.450000         0.0010
      132          -0.350000  -0.150000  -0.350000         0.0010
      133          -0.350000  -0.150000  -0.250000         0.0010
      134          -0.350000  -0.150000  -0.150000         0.0010
      135          -0.350000  -0.150000  -0.050000         0.0010
      136          -0.350000  -0.150000   0.050000         0.0010
      137          -0.350000  -0.150000   0.150000         0.0010
      138          -0.350000  -0.150000   0.250000         0.0010
      139          -0.350000  -0.150000   0.350000         0.0010
      140          -0.350000  -0.150000   0.450000         0.0010
      141          -0.350000  -0.050000  -0.450000         0.0010
      142          -0.350000  -0.050000  -0.350000         0.0010
      143          -0.350000  -0.050000  -0.250000         0.0010
      144          -0.350000  -0.050000  -0.150000         0.0010
      145          -0.350000  -0.050000  -0.050000         0.0010
      146          -0.350000  -0.050000   0.050000         0.0010
      147          -0.350000  -0.050000   0.150000         0.0010
      148          -0.350000  -0.050000   0.250000         0.0010
      149          -0.350000  -0.050000   0.350000         0.0010
      150          -0.350000  -0.050000   0.450000         0.0010
      151          -0.350000   0.050000  -0.450000         0.0010
      152          -0.350000   0.050000  -0.350000         0.0010
      153          -0.350000   0.050000  -0.250000         0.0010
      154          -0.350000   0.050000  -0.150000         0.0010
      155          -0.350000   0.050000  -0.050000         0.0010
      156          -0.350000   0.050000   0.050000         0.0010
      157          -0.350000   0.050000   0.150000         0.0010
      158          -0.350000   0.050000   0.250000         0.0010
      159          -0.350000   0.050000   0.350000         0.0010
      160          -0.350000   0.050000   0.450000         0.0010
      161          -0.350000   0.150000  -0.450000         0.0010
      162          -0.350000   0.150000  -0.350000         0.0010
      163          -0.350000   0.150000  -0.250000         0.0010
      164          -0.350000   0.150000  -0.150000         0.0010
      165          -0.350000   0.150000  -0.050000         0.0010
      166          -0.350000   0.150000   0.050000         0.0010
      167          -0.350000   0.150000   0.150000         0.0010
      168          -0.350000   0.150000   0.250000         0.0010
      169          -0.350000   0.150000   0.350000         0.0010
      170          -0.350000   0.150000   0.450000         0.0010
      171          -0.350000   0.250000  -0.450000         0.0010
      172          -0.350000   0.250000  -0.350000         0.0010
      173          -0.350000   0.250000  -0.250000         0.0010
      174          -0.350000   0.250000  -0.150000         0.0010
      175          -0.350000   0.250000  -0.050000         0.0010
      176          -0.350000   0.250000   0.050000         0.0010
      177          -0.350000   0.250000   0.150000         0.0010
      178          -0.350000   0.250000   0.250000         0.0010
      179          -0.350000   0.250000   0.350000         0.0010
      180          -0.350000   0.250000   0.450000         0.0010
      181          -0.350000   0.350000  -0.450000         0.0010
      182          -0.350000   0.350000  -0.350000         0.0010
      183          -0.350000   0.350000  -0.250000         0.0010
      184          -0.350000   0.350000  -0.150000         0.0010
      185          -0.350000   0.350000  -0.050000         0.0010
      186          -0.350000   0.350000   0.050000         0.0010
      187          -0.350000   0.350000   0.150000         0.0010
      188          -0.350000   0.350000   0.250000         0.0010
      189          -0.350000   0.350000   0.350000         0.0010
      190          -0.350000   0.350000   0.450000         0.0010
      191          -0.350000   0.450000  -0.450000         0.0010
      192          -0.350000   0.450000  -0.350000         0.0010
      193          -0.350000   0.450000  -0.250000         0.0010
      194          -0.350000   0.450000  -0.150000         0.0010
      195          -0.350000   0.450000  -0.050000         0.0010
      196          -0.350000   0.450000   0.050000         0.0010
      197          -0.350000   0.450000   0.150000         0.0010
      198          -0.350000   0.450000   0.250000         0.0010
      199          -0.350000   0.450000   0.350000         0.0010
      200          -0.350000   0.450000   0.450000         0.0010
      201          -0.250000  -0.450000  -0.450000         0.0010
      202          -0.250000  -0.450000  -0.350000         0.0010
      203          -0.250000  -0.450000  -0.250000         0.0010
      204          -0.250000  -0.450000  -0.150000         0.0010
      205          -0.250000  -0.450000  -0.050000         0.0010
      206          -0.250000  -0.450000   0.050000         0.0010
      207          -0.250000  -0.450000   0.150000         0.0010
      208          -0.250000  -0.450000   0.250000         0.0010
      209          -0.250000  -0.450000   0.350000         0.0010
      210          -0.250000  -0.450000   0.450000         0.0010
      211          -0.250000  -0.350000  -0.450000         0.0010
      212          -0.250000  -0.350000  -0.350000         0.0010
      213          -0.250000  -0.350000  -0.250000         0.0010
      214          -0.250000  -0.350000  -0.150000         0.0010
      215          -0.250000  -0.350000  -0.050000         0.0010
      216          -0.250000  -0.350000   0.050000         0.0010
      217          -0.250000  -0.350000   0.150000         0.0010
      218          -0.250000  -0.350000   0.250000         0.0010
      219          -0.250000  -0.350000   0.350000         0.0010
      220          -0.250000  -0.350000   0.450000         0.0010
      221          -0.250000  -0.250000  -0.450000         0.0010
      222          -0.250000  -0.250000  -0.350000         0.0010
      223          -0.250000  -0.250000  -0.250000         0.0010
      224          -0.250000  -0.250000  -0.150000         0.0010
      225          -0.250000  -0.250000  -0.050000         0.0010
      226          -0.250000  -0.250000   0.050000         0.0010
      227          -0.250000  -0.250000   0.150000         0.0010
      228          -0.250000  -0.250000   0.250000         0.0010
      229          -0.250000  -0.250000   0.350000         0.0010
      230          -0.250000  -0.250000   0.450000         0.0010
      231          -0.250000  -0.150000  -0.450000         0.0010
      232          -0.250000  -0.150000  -0.350000         0.0010
      233          -0.250000  -0.150000  -0.250000         0.0010
      234          -0.250000  -0.150000  -0.150000         0.0010
      235          -0.250000  -0.150000  -0.050000         0.0010
      236          -0.250000  -0.150000   0.050000         0.0010
      237          -0.250000  -0.150000   0.150000         0.0010
      238          -0.250000  -0.150000   0.250000         0.0010
      239          -0.250000  -0.150000   0.350000         0.0010
      240          -0.250000  -0.150000   0.450000         0.0010
      241          -0.250000  -0.050000  -0.450000         0.0010
      242          -0.250000  -0.050000  -0.350000         0.0010
      243          -0.250000  -0.050000  -0.250000         0.0010
      244          -0.250000  -0.050000  -0.150000         0.0010
      245          -0.250000  -0.050000  -0.050000         0.0010
      246          -0.250000  -0.050000   0.050000         0.0010
      247          -0.250000  -0.050000   0.150000         0.0010
      248          -0.250000  -0.050000   0.250000         0.0010
      249          -0.250000  -0.050000   0.350000         0.0010
      250          -0.250000  -0.050000   0.450000         0.0010
      251          -0.250000   0.050000  -0.450000         0.0010
      252          -0.250000   0.050000  -0.350000         0.0010
      253          -0.250000   0.050000  -0.250000         0.0010
      254          -0.250000   0.050000  -0.150000         0.0010
      255          -0.250000   0.050000  -0.050000         0.0010
      256          -0.250000   0.050000   0.050000         0.0010
      257          -0.250000   0.050000   0.150000         0.0010
      258          -0.250000   0.050000   0.250000         0.0010
      259          -0.250000   0.050000   0.350000         0.0010
      260          -0.250000   0.050000   0.450000         0.0010
      261          -0.250000   0.150000  -0.450000         0.0010
      262          -0.250000   0.150000  -0.350000         0.0010
      263          -0.250000   0.150000  -0.250000         0.0010
      264          -0.250000   0.150000  -0.150000         0.0010
      265          -0.250000   0.150000  -0.050000         0.0010
      266          -0.250000   0.150000   0.050000         0.0010
      267          -0.250000   0.150000   0.150000         0.0010
      268          -0.250000   0.150000   0.250000         0.0010
      269          -0.250000   0.150000   0.350000         0.0010
      270          -0.250000   0.150000   0.450000         0.0010
      271          -0.250000   0.250000  -0.450000         0.0010
      272          -0.250000   0.250000  -0.350000         0.0010
      273          -0.250000   0.250000  -0.250000         0.0010
      274          -0.250000   0.250000  -0.150000         0.0010
      275          -0.250000   0.250000  -0.050000         0.0010
      276          -0.250000   0.250000   0.050000         0.0010
      277          -0.250000   0.250000   0.150000         0.0010
      278          -0.250000   0.250000   0.250000         0.0010
      279          -0.250000   0.250000   0.350000         0.0010
      280          -0.250000   0.250000   0.450000         0.0010
      281          -0.250000   0.350000  -0.450000         0.0010
      282          -0.250000   0.350000  -0.350000         0.0010
      283          -0.250000   0.350000  -0.250000         0.0010
      284          -0.250000   0.350000  -0.150000         0.0010
      285          -0.250000   0.350000  -0.050000         0.0010
      286          -0.250000   0.350000   0.050000         0.0010
      287          -0.250000   0.350000   0.150000         0.0010
      288          -0.250000   0.350000   0.250000         0.0010
      289          -0.250000   0.350000   0.350000         0.0010
      290          -0.250000   0.350000   0.450000         0.0010
      291          -0.250000   0.450000  -0.450000         0.0010
      292          -0.250000   0.450000  -0.350000         0.0010
      293          -0.250000   0.450000  -0.250000         0.0010
      294          -0.250000   0.450000  -0.150000         0.0010
      295          -0.250000   0.450000  -0.050000         0.0010
      296          -0.250000   0.450000   0.050000         0.0010
      297          -0.250000   0.450000   0.150000         0.0010
      298          -0.250000   0.450000   0.250000         0.0010
      299          -0.250000   0.450000   0.350000         0.0010
      300          -0.250000   0.450000   0.450000         0.0010
      301          -0.150000  -0.450000  -0.450000         0.0010
      302          -0.150000  -0.450000  -0.350000         0.0010
      303          -0.150000  -0.450000  -0.250000         0.0010
      304          -0.150000  -0.450000  -0.150000         0.0010
      305          -0.150000  -0.450000  -0.050000         0.0010
      306          -0.150000  -0.450000   0.050000         0.0010
      307          -0.150000  -0.450000   0.150000         0.0010
      308          -0.150000  -0.450000   0.250000         0.0010
      309          -0.150000  -0.450000   0.350000         0.0010
      310          -0.150000  -0.450000   0.450000         0.0010
      311          -0.150000  -0.350000  -0.450000         0.0010
      312          -0.150000  -0.350000  -0.350000         0.0010
      313          -0.150000  -0.350000  -0.250000         0.0010
      314          -0.150000  -0.350000  -0.150000         0.0010
      315          -0.150000  -0.350000  -0.050000         0.0010
      316          -0.150000  -0.350000   0.050000         0.0010
      317          -0.150000  -0.350000   0.150000         0.0010
      318          -0.150000  -0.350000   0.250000         0.0010
      319          -0.150000  -0.350000   0.350000         0.0010
      320          -0.150000  -0.350000   0.450000         0.0010
      321          -0.150000  -0.250000  -0.450000         0.0010
      322          -0.150000  -0.250000  -0.350000         0.0010
      323          -0.150000  -0.250000  -0.250000         0.0010
      324          -0.150000  -0.250000  -0.150000         0.0010
      325          -0.150000  -0.250000  -0.050000         0.0010
      326          -0.150000  -0.250000   0.050000         0.0010
      327          -0.150000  -0.250000   0.150000         0.0010
      328          -0.150000  -0.250000   0.250000         0.0010
      329          -0.150000  -0.250000   0.350000         0.0010
      330          -0.150000  -0.250000   0.450000         0.0010
      331          -0.150000  -0.150000  -0.450000         0.0010
      332          -0.150000  -0.150000  -0.350000         0.0010
      333          -0.150000  -0.150000  -0.250000         0.0010
      334          -0.150000  -0.150000  -0.150000         0.0010
      335          -0.150000  -0.150000  -0.050000         0.0010
      336          -0.150000  -0.150000   0.050000         0.0010
      337          -0.150000  -0.150000   0.150000         0.0010
      338          -0.150000  -0.150000   0.250000         0.0010
      339          -0.150000  -0.150000   0.350000         0.0010
      340          -0.150000  -0.150000   0.450000         0.0010
      341          -0.150000  -0.050000  -0.450000         0.0010
      342          -0.150000  -0.050000  -0.350000         0.0010
      343          -0.150000  -0.050000  -0.250000         0.0010
      344          -0.150000  -0.050000  -0.150000         0.0010
      345          -0.150000  -0.050000  -0.050000         0.0010
      346          -0.150000  -0.050000   0.050000         0.0010
      347          -0.150000  -0.050000   0.150000         0.0010
      348          -0.150000  -0.050000   0.250000         0.0010
      349          -0.150000  -0.050000   0.350000         0.0010
      350          -0.150000  -0.050000   0.450000         0.0010
      351          -0.150000   0.050000  -0.450000         0.0010
      352          -0.150000   0.050000  -0.350000         0.0010
      353          -0.150000   0.050000  -0.250000         0.0010
      354          -0.150000   0.050000  -0.150000         0.0010
      355          -0.150000   0.050000  -0.050000         0.0010
      356          -0.150000   0.050000   0.050000         0.0010
      357          -0.150000   0.050000   0.150000         0.0010
      358          -0.150000   0.050000   0.250000         0.0010
      359          -0.150000   0.050000   0.350000         0.0010
      360          -0.150000   0.050000   0.450000         0.0010
      361          -0.150000   0.150000  -0.450000         0.0010
      362          -0.150000   0.150000  -0.350000         0.0010
      363          -0.150000   0.150000  -0.250000         0.0010
      364          -0.150000   0.150000  -0.150000         0.0010
      365          -0.150000   0.150000  -0.050000         0.0010
      366          -0.150000   0.150000   0.050000         0.0010
      367          -0.150000   0.150000   0.150000         0.0010
      368          -0.150000   0.150000   0.250000         0.0010
      369          -0.150000   0.150000   0.350000         0.0010
      370          -0.150000   0.150000   0.450000         0.0010
      371          -0.150000   0.250000  -0.450000         0.0010
      372          -0.150000   0.250000  -0.350000         0.0010
      373          -0.150000   0.250000  -0.250000         0.0010
      374          -0.150000   0.250000  -0.150000         0.0010
      375          -0.150000   0.250000  -0.050000         0.0010
      376          -0.150000   0.250000   0.050000         0.0010
      377          -0.150000   0.250000   0.150000         0.0010
      378          -0.150000   0.250000   0.250000         0.0010
      379          -0.150000   0.250000   0.350000         0.0010
      380          -0.150000   0.250000   0.450000         0.0010
      381          -0.150000   0.350000  -0.450000         0.0010
      382          -0.150000   0.350000  -0.350000         0.0010
      383          -0.150000   0.350000  -0.250000         0.0010
      384          -0.150000   0.350000  -0.150000         0.0010
      385          -0.150000   0.350000  -0.050000         0.0010
      386          -0.150000   0.350000   0.050000         0.0010
      387          -0.150000   0.350000   0.150000         0.0010
      388          -0.150000   0.350000   0.250000         0.0010
      389          -0.150000   0.350000   0.350000         0.0010
      390          -0.150000   0.350000   0.450000         0.0010
      391          -0.150000   0.450000  -0.450000         0.0010
      392          -0.150000   0.450000  -0.350000         0.0010
      393          -0.150000   0.450000  -0.250000         0.0010
      394          -0.150000   0.450000  -0.150000         0.0010
      395          -0.150000   0.450000  -0.050000         0.0010
      396          -0.150000   0.450000   0.050000         0.0010
      397          -0.150000   0.450000   0.150000         0.0010
      398          -0.150000   0.450000   0.250000         0.0010
      399          -0.150000   0.450000   0.350000         0.0010
      400          -0.150000   0.450000   0.450000         0.0010
      401          -0.050000  -0.450000  -0.450000         0.0010
      402          -0.050000  -0.450000  -0.350000         0.0010
      403          -0.050000  -0.450000  -0.250000         0.0010
      404          -0.050000  -0.450000  -0.150000         0.0010
      405          -0.050000  -0.450000  -0.050000         0.0010
      406          -0.050000  -0.450000   0.050000         0.0010
      407          -0.050000  -0.450000   0.150000         0.0010
      408          -0.050000  -0.450000   0.250000         0.0010
      409          -0.050000  -0.450000   0.350000         0.0010
      410          -0.050000  -0.450000   0.450000         0.0010
      411          -0.050000  -0.350000  -0.450000         0.0010
      412          -0.050000  -0.350000  -0.350000         0.0010
      413          -0.050000  -0.350000  -0.250000         0.0010
      414          -0.050000  -0.350000  -0.150000         0.0010
      415          -0.050000  -0.350000  -0.050000         0.0010
      416          -0.050000  -0.350000   0.050000         0.0010
      417          -0.050000  -0.350000   0.150000         0.0010
      418          -0.050000  -0.350000   0.250000         0.0010
      419          -0.050000  -0.350000   0.350000         0.0010
      420          -0.050000  -0.350000   0.450000         0.0010
      421          -0.050000  -0.250000  -0.450000         0.0010
      422          -0.050000  -0.250000  -0.350000         0.0010
      423          -0.050000  -0.250000  -0.250000         0.0010
      424          -0.050000  -0.250000  -0.150000         0.0010
      425          -0.050000  -0.250000  -0.050000         0.0010
      426          -0.050000  -0.250000   0.050000         0.0010
      427          -0.050000  -0.250000   0.150000         0.0010
      428          -0.050000  -0.250000   0.250000         0.0010
      429          -0.050000  -0.250000   0.350000         0.0010
      430          -0.050000  -0.250000   0.450000         0.0010
      431          -0.050000  -0.150000  -0.450000         0.0010
      432          -0.050000  -0.150000  -0.350000         0.0010
      433          -0.050000  -0.150000  -0.250000         0.0010
      434          -0.050000  -0.150000  -0.150000         0.0010
      435          -0.050000  -0.150000  -0.050000         0.0010
      436          -0.050000  -0.150000   0.050000         0.0010
      437          -0.050000  -0.150000   0.150000         0.0010
      438          -0.050000  -0.150000   0.250000         0.0010
      439          -0.050000  -0.150000   0.350000         0.0010
      440          -0.050000  -0.150000   0.450000         0.0010
      441          -0.050000  -0.050000  -0.450000         0.0010
      442          -0.050000  -0.050000  -0.350000         0.0010
      443          -0.050000  -0.050000  -0.250000         0.0010
      444          -0.050000  -0.050000  -0.150000         0.0010
      445          -0.050000  -0.050000  -0.050000         0.0010
      446          -0.050000  -0.050000   0.050000         0.0010
      447          -0.050000  -0.050000   0.150000         0.0010
      448          -0.050000  -0.050000   0.250000         0.0010
      449          -0.050000  -0.050000   0.350000         0.0010
      450          -0.050000  -0.050000   0.450000         0.0010
      451          -0.050000   0.050000  -0.450000         0.0010
      452          -0.050000   0.050000  -0.350000         0.0010
      453          -0.050000   0.050000  -0.250000         0.0010
      454          -0.050000   0.050000  -0.150000         0.0010
      455          -0.050000   0.050000  -0.050000         0.0010
      456          -0.050000   0.050000   0.050000         0.0010
      457          -0.050000   0.050000   0.150000         0.0010
      458          -0.050000   0.050000   0.250000         0.0010
      459          -0.050000   0.050000   0.350000         0.0010
      460          -0.050000   0.050000   0.450000         0.0010
      461          -0.050000   0.150000  -0.450000         0.0010
      462          -0.050000   0.150000  -0.350000         0.0010
      463          -0.050000   0.150000  -0.250000         0.0010
      464          -0.050000   0.150000  -0.150000         0.0010
      465          -0.050000   0.150000  -0.050000         0.0010
      466          -0.050000   0.150000   0.050000         0.0010
      467          -0.050000   0.150000   0.150000         0.0010
      468          -0.050000   0.150000   0.250000         0.0010
      469          -0.050000   0.150000   0.350000         0.0010
      470          -0.050000   0.150000   0.450000         0.0010
      471          -0.050000   0.250000  -0.450000         0.0010
      472          -0.050000   0.250000  -0.350000         0.0010
      473          -0.050000   0.250000  -0.250000         0.0010
      474          -0.050000   0.250000  -0.150000         0.0010
      475          -0.050000   0.250000  -0.050000         0.0010
      476          -0.050000   0.250000   0.050000         0.0010
      477          -0.050000   0.250000   0.150000         0.0010
      478          -0.050000   0.250000   0.250000         0.0010
      479          -0.050000   0.250000   0.350000         0.0010
      480          -0.050000   0.250000   0.450000         0.0010
      481          -0.050000   0.350000  -0.450000         0.0010
      482          -0.050000   0.350000  -0.350000         0.0010
      483          -0.050000   0.350000  -0.250000         0.0010
      484          -0.050000   0.350000  -0.150000         0.0010
      485          -0.050000   0.350000  -0.050000         0.0010
      486          -0.050000   0.350000   0.050000         0.0010
      487          -0.050000   0.350000   0.150000         0.0010
      488          -0.050000   0.350000   0.250000         0.0010
      489          -0.050000   0.350000   0.350000         0.0010
      490          -0.050000   0.350000   0.450000         0.0010
      491          -0.050000   0.450000  -0.450000         0.0010
      492          -0.050000   0.450000  -0.350000         0.0010
      493          -0.050000   0.450000  -0.250000         0.0010
      494          -0.050000   0.450000  -0.150000         0.0010
      495          -0.050000   0.450000  -0.050000         0.0010
      496          -0.050000   0.450000   0.050000         0.0010
      497          -0.050000   0.450000   0.150000         0.0010
      498          -0.050000   0.450000   0.250000         0.0010
      499          -0.050000   0.450000   0.350000         0.0010
      500          -0.050000   0.450000   0.450000         0.0010
      501           0.050000  -0.450000  -0.450000         0.0010
      502           0.050000  -0.450000  -0.350000         0.0010
      503           0.050000  -0.450000  -0.250000         0.0010
      504           0.050000  -0.450000  -0.150000         0.0010
      505           0.050000  -0.450000  -0.050000         0.0010
      506           0.050000  -0.450000   0.050000         0.0010
      507           0.050000  -0.450000   0.150000         0.0010
      508           0.050000  -0.450000   0.250000         0.0010
      509           0.050000  -0.450000   0.350000         0.0010
      510           0.050000  -0.450000   0.450000         0.0010
      511           0.050000  -0.350000  -0.450000         0.0010
      512           0.050000  -0.350000  -0.350000         0.0010
      513           0.050000  -0.350000  -0.250000         0.0010
      514           0.050000  -0.350000  -0.150000         0.0010
      515           0.050000  -0.350000  -0.050000         0.0010
      516           0.050000  -0.350000   0.050000         0.0010
      517           0.050000  -0.350000   0.150000         0.0010
      518           0.050000  -0.350000   0.250000         0.0010
      519           0.050000  -0.350000   0.350000         0.0010
      520           0.050000  -0.350000   0.450000         0.0010
      521           0.050000  -0.250000  -0.450000         0.0010
      522           0.050000  -0.250000  -0.350000         0.0010
      523           0.050000  -0.250000  -0.250000         0.0010
      524           0.050000  -0.250000  -0.150000         0.0010
      525           0.050000  -0.250000  -0.050000         0.0010
      526           0.050000  -0.250000   0.050000         0.0010
      527           0.050000  -0.250000   0.150000         0.0010
      528           0.050000  -0.250000   0.250000         0.0010
      529           0.050000  -0.250000   0.350000         0.0010
      530           0.050000  -0.250000   0.450000         0.0010
      531           0.050000  -0.150000  -0.450000         0.0010
      532           0.050000  -0.150000  -0.350000         0.0010
      533           0.050000  -0.150000  -0.250000         0.0010
      534           0.050000  -0.150000  -0.150000         0.0010
      535           0.050000  -0.150000  -0.050000         0.0010
      536           0.050000  -0.150000   0.050000         0.0010
      537           0.050000  -0.150000   0.150000         0.0010
      538           0.050000  -0.150000   0.250000         0.0010
      539           0.050000  -0.150000   0.350000         0.0010
      540           0.050000  -0.150000   0.450000         0.0010
      541           0.050000  -0.050000  -0.450000         0.0010
      542           0.050000  -0.050000  -0.350000         0.0010
      543           0.050000  -0.050000  -0.250000         0.0010
      544           0.050000  -0.050000  -0.150000         0.0010
      545           0.050000  -0.050000  -0.050000         0.0010
      546           0.050000  -0.050000   0.050000         0.0010
      547           0.050000  -0.050000   0.150000         0.0010
      548           0.050000  -0.050000   0.250000         0.0010
      549           0.050000  -0.050000   0.350000         0.0010
      550           0.050000  -0.050000   0.450000         0.0010
      551           0.050000   0.050000  -0.450000         0.0010
      552           0.050000   0.050000  -0.350000         0.0010
      553           0.050000   0.050000  -0.250000         0.0010
      554           0.050000   0.050000  -0.150000         0.0010
      555           0.050000   0.050000  -0.050000         0.0010
      556           0.050000   0.050000   0.050000         0.0010
      557           0.050000   0.050000   0.150000         0.0010
      558           0.050000   0.050000   0.250000         0.0010
      559           0.050000   0.050000   0.350000         0.0010
      560           0.050000   0.050000   0.450000         0.0010
      561           0.050000   0.150000  -0.450000         0.0010
      562           0.050000   0.150000  -0.350000         0.0010
      563           0.050000   0.150000  -0.250000         0.0010
      564           0.050000   0.150000  -0.150000         0.0010
      565           0.050000   0.150000  -0.050000         0.0010
      566           0.050000   0.150000   0.050000         0.0010
      567           0.050000   0.150000   0.150000         0.0010
      568           0.050000   0.150000   0.250000         0.0010
      569           0.050000   0.150000   0.350000         0.0010
      570           0.050000   0.150000   0.450000         0.0010
      571           0.050000   0.250000  -0.450000         0.0010
      572           0.050000   0.250000  -0.350000         0.0010
      573           0.050000   0.250000  -0.250000         0.0010
      574           0.050000   0.250000  -0.150000         0.0010
      575           0.050000   0.250000  -0.050000         0.0010
      576           0.050000   0.250000   0.050000         0.0010
      577           0.050000   0.250000   0.150000         0.0010
      578           0.050000   0.250000   0.250000         0.0010
      579           0.050000   0.250000   0.350000         0.0010
      580           0.050000   0.250000   0.450000         0.0010
      581           0.050000   0.350000  -0.450000         0.0010
      582           0.050000   0.350000  -0.350000         0.0010
      583           0.050000   0.350000  -0.250000         0.0010
      584           0.050000   0.350000  -0.150000         0.0010
      585           0.050000   0.350000  -0.050000         0.0010
      586           0.050000   0.350000   0.050000         0.0010
      587           0.050000   0.350000   0.150000         0.0010
      588           0.050000   0.350000   0.250000         0.0010
      589           0.050000   0.350000   0.350000         0.0010
      590           0.050000   0.350000   0.450000         0.0010
      591           0.050000   0.450000  -0.450000         0.0010
      592           0.050000   0.450000  -0.350000         0.0010
      593           0.050000   0.450000  -0.250000         0.0010
      594           0.050000   0.450000  -0.150000         0.0010
      595           0.050000   0.450000  -0.050000         0.0010
      596           0.050000   0.450000   0.050000         0.0010
      597           0.050000   0.450000   0.150000         0.0010
      598           0.050000   0.450000   0.250000         0.0010
      599           0.050000   0.450000   0.350000         0.0010
      600           0.050000   0.450000   0.450000         0.0010
      601           0.150000  -0.450000  -0.450000         0.0010
      602           0.150000  -0.450000  -0.350000         0.0010
      603           0.150000  -0.450000  -0.250000         0.0010
      604           0.150000  -0.450000  -0.150000         0.0010
      605           0.150000  -0.450000  -0.050000         0.0010
      606           0.150000  -0.450000   0.050000         0.0010
      607           0.150000  -0.450000   0.150000         0.0010
      608           0.150000  -0.450000   0.250000         0.0010
      609           0.150000  -0.450000   0.350000         0.0010
      610           0.150000  -0.450000   0.450000         0.0010
      611           0.150000  -0.350000  -0.450000         0.0010
      612           0.150000  -0.350000  -0.350000         0.0010
      613           0.150000  -0.350000  -0.250000         0.0010
      614           0.150000  -0.350000  -0.150000         0.0010
      615           0.150000  -0.350000  -0.050000         0.0010
      616           0.150000  -0.350000   0.050000         0.0010
      617           0.150000  -0.350000   0.150000         0.0010
      618           0.150000  -0.350000   0.250000         0.0010
      619           0.150000  -0.350000   0.350000         0.0010
      620           0.150000  -0.350000   0.450000         0.0010
      621           0.150000  -0.250000  -0.450000         0.0010
      622           0.150000  -0.250000  -0.350000         0.0010
      623           0.150000  -0.250000  -0.250000         0.0010
      624           0.150000  -0.250000  -0.150000         0.0010
      625           0.150000  -0.250000  -0.050000         0.0010
      626           0.150000  -0.250000   0.050000         0.0010
      627           0.150000  -0.250000   0.150000         0.0010
      628           0.150000  -0.250000   0.250000         0.0010
      629           0.150000  -0.250000   0.350000         0.0010
      630           0.150000  -0.250000   0.450000         0.0010
      631           0.150000  -0.150000  -0.450000         0.0010
      632           0.150000  -0.150000  -0.350000         0.0010
      633           0.150000  -0.150000  -0.250000         0.0010
      634           0.150000  -0.150000  -0.150000         0.0010
      635           0.150000  -0.150000  -0.050000         0.0010
      636           0.150000  -0.150000   0.050000         0.0010
      637           0.150000  -0.150000   0.150000         0.0010
      638           0.150000  -0.150000   0.250000         0.0010
      639           0.150000  -0.150000   0.350000         0.0010
      640           0.150000  -0.150000   0.450000         0.0010
      641           0.150000  -0.050000  -0.450000         0.0010
      642           0.150000  -0.050000  -0.350000         0.0010
      643           0.150000  -0.050000  -0.250000         0.0010
      644           0.150000  -0.050000  -0.150000         0.0010
      645           0.150000  -0.050000  -0.050000         0.0010
      646           0.150000  -0.050000   0.050000         0.0010
      647           0.150000  -0.050000   0.150000         0.0010
      648           0.150000  -0.050000   0.250000         0.0010
      649           0.150000  -0.050000   0.350000         0.0010
      650           0.150000  -0.050000   0.450000         0.0010
      651           0.150000   0.050000  -0.450000         0.0010
      652           0.150000   0.050000  -0.350000         0.0010
      653           0.150000   0.050000  -0.250000         0.0010
      654           0.150000   0.050000  -0.150000         0.0010
      655           0.150000   0.050000  -0.050000         0.0010
      656           0.150000   0.050000   0.050000         0.0010
      657           0.150000   0.050000   0.150000         0.0010
      658           0.150000   0.050000   0.250000         0.0010
      659           0.150000   0.050000   0.350000         0.0010
      660           0.150000   0.050000   0.450000         0.0010
      661           0.150000   0.150000  -0.450000         0.0010
      662           0.150000   0.150000  -0.350000         0.0010
      663           0.150000   0.150000  -0.250000         0.0010
      664           0.150000   0.150000  -0.150000         0.0010
      665           0.150000   0.150000  -0.050000         0.0010
      666           0.150000   0.150000   0.050000         0.0010
      667           0.150000   0.150000   0.150000         0.0010
      668           0.150000   0.150000   0.250000         0.0010
      669           0.150000   0.150000   0.350000         0.0010
      670           0.150000   0.150000   0.450000         0.0010
      671           0.150000   0.250000  -0.450000         0.0010
      672           0.150000   0.250000  -0.350000         0.0010
      673           0.150000   0.250000  -0.250000         0.0010
      674           0.150000   0.250000  -0.150000         0.0010
      675           0.150000   0.250000  -0.050000         0.0010
      676           0.150000   0.250000   0.050000         0.0010
      677           0.150000   0.250000   0.150000         0.0010
      678           0.150000   0.250000   0.250000         0.0010
      679           0.150000   0.250000   0.350000         0.0010
      680           0.150000   0.250000   0.450000         0.0010
      681           0.150000   0.350000  -0.450000         0.0010
      682           0.150000   0.350000  -0.350000         0.0010
      683           0.150000   0.350000  -0.250000         0.0010
      684           0.150000   0.350000  -0.150000         0.0010
      685           0.150000   0.350000  -0.050000         0.0010
      686           0.150000   0.350000   0.050000         0.0010
      687           0.150000   0.350000   0.150000         0.0010
      688           0.150000   0.350000   0.250000         0.0010
      689           0.150000   0.350000   0.350000         0.0010
      690           0.150000   0.350000   0.450000         0.0010
      691           0.150000   0.450000  -0.450000         0.0010
      692           0.150000   0.450000  -0.350000         0.0010
      693           0.150000   0.450000  -0.250000         0.0010
      694           0.150000   0.450000  -0.150000         0.0010
      695           0.150000   0.450000  -0.050000         0.0010
      696           0.150000   0.450000   0.050000         0.0010
      697           0.150000   0.450000   0.150000         0.0010
      698           0.150000   0.450000   0.250000         0.0010
      699           0.150000   0.450000   0.350000         0.0010
      700           0.150000   0.450000   0.450000         0.0010
      701           0.250000  -0.450000  -0.450000         0.0010
      702           0.250000  -0.450000  -0.350000         0.0010
      703           0.250000  -0.450000  -0.250000         0.0010
      704           0.250000  -0.450000  -0.150000         0.0010
      705           0.250000  -0.450000  -0.050000         0.0010
      706           0.250000  -0.450000   0.050000         0.0010
      707           0.250000  -0.450000   0.150000         0.0010
      708           0.250000  -0.450000   0.250000         0.0010
      709           0.250000  -0.450000   0.350000         0.0010
      710           0.250000  -0.450000   0.450000         0.0010
      711           0.250000  -0.350000  -0.450000         0.0010
      712           0.250000  -0.350000  -0.350000         0.0010
      713           0.250000  -0.350000  -0.250000         0.0010
      714           0.250000  -0.350000  -0.150000         0.0010
      715           0.250000  -0.350000  -0.050000         0.0010
      716           0.250000  -0.350000   0.050000         0.0010
      717           0.250000  -0.350000   0.150000         0.0010
      718           0.250000  -0.350000   0.250000         0.0010
      719           0.250000  -0.350000   0.350000         0.0010
      720           0.250000  -0.350000   0.450000         0.0010
      721           0.250000  -0.250000  -0.450000         0.0010
      722           0.250000  -0.250000  -0.350000         0.0010
      723           0.250000  -0.250000  -0.250000         0.0010
      724           0.250000  -0.250000  -0.150000         0.0010
      725           0.250000  -0.250000  -0.050000         0.0010
      726           0.250000  -0.250000   0.050000         0.0010
      727           0.250000  -0.250000   0.150000         0.0010
      728           0.250000  -0.250000   0.250000         0.0010
      729           0.250000  -0.250000   0.350000         0.0010
      730           0.250000  -0.250000   0.450000         0.0010
      731           0.250000  -0.150000  -0.450000         0.0010
      732           0.250000  -0.150000  -0.350000         0.0010
      733           0.250000  -0.150000  -0.250000         0.0010
      734           0.250000  -0.150000  -0.150000         0.0010
      735           0.250000  -0.150000  -0.050000         0.0010
      736           0.250000  -0.150000   0.050000         0.0010
      737           0.250000  -0.150000   0.150000         0.0010
      738           0.250000  -0.150000   0.250000         0.0010
      739           0.250000  -0.150000   0.350000         0.0010
      740           0.250000  -0.150000   0.450000         0.0010
      741           0.250000  -0.050000  -0.450000         0.0010
      742           0.250000  -0.050000  -0.350000         0.0010
      743           0.250000  -0.050000  -0.250000         0.0010
      744           0.250000  -0.050000  -0.150000         0.0010
      745           0.250000  -0.050000  -0.050000         0.0010
      746           0.250000  -0.050000   0.050000         0.0010
      747           0.250000  -0.050000   0.150000         0.0010
      748           0.250000  -0.050000   0.250000         0.0010
      749           0.250000  -0.050000   0.350000         0.0010
      750           0.250000  -0.050000   0.450000         0.0010
      751           0.250000   0.050000  -0.450000         0.0010
      752           0.250000   0.050000  -0.350000         0.0010
      753           0.250000   0.050000  -0.250000         0.0010
      754           0.250000   0.050000  -0.150000         0.0010
      755           0.250000   0.050000  -0.050000         0.0010
      756           0.250000   0.050000   0.050000         0.0010
      757           0.250000   0.050000   0.150000         0.0010
      758           0.250000   0.050000   0.250000         0.0010
      759           0.250000   0.050000   0.350000         0.0010
      760           0.250000   0.050000   0.450000         0.0010
      761           0.250000   0.150000  -0.450000         0.0010
      762           0.250000   0.150000  -0.350000         0.0010
      763           0.250000   0.150000  -0.250000         0.0010
      764           0.250000   0.150000  -0.150000         0.0010
      765           0.250000   0.150000  -0.050000         0.0010
      766           0.250000   0.150000   0.050000         0.0010
      767           0.250000   0.150000   0.150000         0.0010
      768           0.250000   0.150000   0.250000         0.0010
      769           0.250000   0.150000   0.350000         0.0010
      770           0.250000   0.150000   0.450000         0.0010
      771           0.250000   0.250000  -0.450000         0.0010
      772           0.250000   0.250000  -0.350000         0.0010
      773           0.250000   0.250000  -0.250000         0.0010
      774           0.250000   0.250000  -0.150000         0.0010
      775           0.250000   0.250000  -0.050000         0.0010
      776           0.250000   0.250000   0.050000         0.0010
      777           0.250000   0.250000   0.150000         0.0010
      778           0.250000   0.250000   0.250000         0.0010
      779           0.250000   0.250000   0.350000         0.0010
      780           0.250000   0.250000   0.450000         0.0010
      781           0.250000   0.350000  -0.450000         0.0010
      782           0.250000   0.350000  -0.350000         0.0010
      783           0.250000   0.350000  -0.250000         0.0010
      784           0.250000   0.350000  -0.150000         0.0010
      785           0.250000   0.350000  -0.050000         0.0010
      786           0.250000   0.350000   0.050000         0.0010
      787           0.250000   0.350000   0.150000         0.0010
      788           0.250000   0.350000   0.250000         0.0010
      789           0.250000   0.350000   0.350000         0.0010
      790           0.250000   0.350000   0.450000         0.0010
      791           0.250000   0.450000  -0.450000         0.0010
      792           0.250000   0.450000  -0.350000         0.0010
      793           0.250000   0.450000  -0.250000         0.0010
      794           0.250000   0.450000  -0.150000         0.0010
      795           0.250000   0.450000  -0.050000         0.0010
      796           0.250000   0.450000   0.050000         0.0010
      797           0.250000   0.450000   0.150000         0.0010
      798           0.250000   0.450000   0.250000         0.0010
      799           0.250000   0.450000   0.350000         0.0010
      800           0.250000   0.450000   0.450000         0.0010
      801           0.350000  -0.450000  -0.450000         0.0010
      802           0.350000  -0.450000  -0.350000         0.0010
      803           0.350000  -0.450000  -0.250000         0.0010
      804           0.350000  -0.450000  -0.150000         0.0010
      805           0.350000  -0.450000  -0.050000         0.0010
      806           0.350000  -0.450000   0.050000         0.0010
      807           0.350000  -0.450000   0.150000         0.0010
      808           0.350000  -0.450000   0.250000         0.0010
      809           0.350000  -0.450000   0.350000         0.0010
      810           0.350000  -0.450000   0.450000         0.0010
      811           0.350000  -0.350000  -0.450000         0.0010
      812           0.350000  -0.350000  -0.350000         0.0010
      813           0.350000  -0.350000  -0.250000         0.0010
      814           0.350000  -0.350000  -0.150000         0.0010
      815           0.350000  -0.350000  -0.050000         0.0010
      816           0.350000  -0.350000   0.050000         0.0010
      817           0.350000  -0.350000   0.150000         0.0010
      818           0.350000  -0.350000   0.250000         0.0010
      819           0.350000  -0.350000   0.350000         0.0010
      820           0.350000  -0.350000   0.450000         0.0010
      821           0.350000  -0.250000  -0.450000         0.0010
      822           0.350000  -0.250000  -0.350000         0.0010
      823           0.350000  -0.250000  -0.250000         0.0010
      824           0.350000  -0.250000  -0.150000         0.0010
      825           0.350000  -0.250000  -0.050000         0.0010
      826           0.350000  -0.250000   0.050000         0.0010
      827           0.350000  -0.250000   0.150000         0.0010
      828           0.350000  -0.250000   0.250000         0.0010
      829           0.350000  -0.250000   0.350000         0.0010
      830           0.350000  -0.250000   0.450000         0.0010
      831           0.350000  -0.150000  -0.450000         0.0010
      832           0.350000  -0.150000  -0.350000         0.0010
      833           0.350000  -0.150000  -0.250000         0.0010
      834           0.350000  -0.150000  -0.150000         0.0010
      835           0.350000  -0.150000  -0.050000         0.0010
      836           0.350000  -0.150000   0.050000         0.0010
      837           0.350000  -0.150000   0.150000         0.0010
      838           0.350000  -0.150000   0.250000         0.0010
      839           0.350000  -0.150000   0.350000         0.0010
      840           0.350000  -0.150000   0.450000         0.0010
      841           0.350000  -0.050000  -0.450000         0.0010
      842           0.350000  -0.050000  -0.350000         0.0010
      843           0.350000  -0.050000  -0.250000         0.0010
      844           0.350000  -0.050000  -0.150000         0.0010
      845           0.350000  -0.050000  -0.050000         0.0010
      846           0.350000  -0.050000   0.050000         0.0010
      847           0.350000  -0.050000   0.150000         0.0010
      848           0.350000  -0.050000   0.250000         0.0010
      849           0.350000  -0.050000   0.350000         0.0010
      850           0.350000  -0.050000   0.450000         0.0010
      851           0.350000   0.050000  -0.450000         0.0010
      852           0.350000   0.050000  -0.350000         0.0010
      853           0.350000   0.050000  -0.250000         0.0010
      854           0.350000   0.050000  -0.150000         0.0010
      855           0.350000   0.050000  -0.050000         0.0010
      856           0.350000   0.050000   0.050000         0.0010
      857           0.350000   0.050000   0.150000         0.0010
      858           0.350000   0.050000   0.250000         0.0010
      859           0.350000   0.050000   0.350000         0.0010
      860           0.350000   0.050000   0.450000         0.0010
      861           0.350000   0.150000  -0.450000         0.0010
      862           0.350000   0.150000  -0.350000         0.0010
      863           0.350000   0.150000  -0.250000         0.0010
      864           0.350000   0.150000  -0.150000         0.0010
      865           0.350000   0.150000  -0.050000         0.0010
      866           0.350000   0.150000   0.050000         0.0010
      867           0.350000   0.150000   0.150000         0.0010
      868           0.350000   0.150000   0.250000         0.0010
      869           0.350000   0.150000   0.350000         0.0010
      870           0.350000   0.150000   0.450000         0.0010
      871           0.350000   0.250000  -0.450000         0.0010
      872           0.350000   0.250000  -0.350000         0.0010
      873           0.350000   0.250000  -0.250000         0.0010
      874           0.350000   0.250000  -0.150000         0.0010
      875           0.350000   0.250000  -0.050000         0.0010
      876           0.350000   0.250000   0.050000         0.0010
      877           0.350000   0.250000   0.150000         0.0010
      878           0.350000   0.250000   0.250000         0.0010
      879           0.350000   0.250000   0.350000         0.0010
      880           0.350000   0.250000   0.450000         0.0010
      881           0.350000   0.350000  -0.450000         0.0010
      882           0.350000   0.350000  -0.350000         0.0010
      883           0.350000   0.350000  -0.250000         0.0010
      884           0.350000   0.350000  -0.150000         0.0010
      885           0.350000   0.350000  -0.050000         0.0010
      886           0.350000   0.350000   0.050000         0.0010
      887           0.350000   0.350000   0.150000         0.0010
      888           0.350000   0.350000   0.250000         0.0010
      889           0.350000   0.350000   0.350000         0.0010
      890           0.350000   0.350000   0.450000         0.0010
      891           0.350000   0.450000  -0.450000         0.0010
      892           0.350000   0.450000  -0.350000         0.0010
      893           0.350000   0.450000  -0.250000         0.0010
      894           0.350000   0.450000  -0.150000         0.0010
      895           0.350000   0.450000  -0.050000         0.0010
      896           0.350000   0.450000   0.050000         0.0010
      897           0.350000   0.450000   0.150000         0.0010
      898           0.350000   0.450000   0.250000         0.0010
      899           0.350000   0.450000   0.350000         0.0010
      900           0.350000   0.450000   0.450000         0.0010
      901           0.450000  -0.450000  -0.450000         0.0010
      902           0.450000  -0.450000  -0.350000         0.0010
      903           0.450000  -0.450000  -0.250000         0.0010
      904           0.450000  -0.450000  -0.150000         0.0010
      905           0.450000  -0.450000  -0.050000         0.0010
      906           0.450000  -0.450000   0.050000         0.0010
      907           0.450000  -0.450000   0.150000         0.0010
      908           0.450000  -0.450000   0.250000         0.0010
      909           0.450000  -0.450000   0.350000         0.0010
      910           0.450000  -0.450000   0.450000         0.0010
      911           0.450000  -0.350000  -0.450000         0.0010
      912           0.450000  -0.350000  -0.350000         0.0010
      913           0.450000  -0.350000  -0.250000         0.0010
      914           0.450000  -0.350000  -0.150000         0.0010
      915           0.450000  -0.350000  -0.050000         0.0010
      916           0.450000  -0.350000   0.050000         0.0010
      917           0.450000  -0.350000   0.150000         0.0010
      918           0.450000  -0.350000   0.250000         0.0010
      919           0.450000  -0.350000   0.350000         0.0010
      920           0.450000  -0.350000   0.450000         0.0010
      921           0.450000  -0.250000  -0.450000         0.0010
      922           0.450000  -0.250000  -0.350000         0.0010
      923           0.450000  -0.250000  -0.250000         0.0010
      924           0.450000  -0.250000  -0.150000         0.0010
      925           0.450000  -0.250000  -0.050000         0.0010
      926           0.450000  -0.250000   0.050000         0.0010
      927           0.450000  -0.250000   0.150000         0.0010
      928           0.450000  -0.250000   0.250000         0.0010
      929           0.450000  -0.250000   0.350000         0.0010
      930           0.450000  -0.250000   0.450000         0.0010
      931           0.450000  -0.150000  -0.450000         0.0010
      932           0.450000  -0.150000  -0.350000         0.0010
      933           0.450000  -0.150000  -0.250000         0.0010
      934           0.450000  -0.150000  -0.150000         0.0010
      935           0.450000  -0.150000  -0.050000         0.0010
      936           0.450000  -0.150000   0.050000         0.0010
      937           0.450000  -0.150000   0.150000         0.0010
      938           0.450000  -0.150000   0.250000         0.0010
      939           0.450000  -0.150000   0.350000         0.0010
      940           0.450000  -0.150000   0.450000         0.0010
      941           0.450000  -0.050000  -0.450000         0.0010
      942           0.450000  -0.050000  -0.350000         0.0010
      943           0.450000  -0.050000  -0.250000         0.0010
      944           0.450000  -0.050000  -0.150000         0.0010
      945           0.450000  -0.050000  -0.050000         0.0010
      946           0.450000  -0.050000   0.050000         0.0010
      947           0.450000  -0.050000   0.150000         0.0010
      948           0.450000  -0.050000   0.250000         0.0010
      949           0.450000  -0.050000   0.350000         0.0010
      950           0.450000  -0.050000   0.450000         0.0010
      951           0.450000   0.050000  -0.450000         0.0010
      952           0.450000   0.050000  -0.350000         0.0010
      953           0.450000   0.050000  -0.250000         0.0010
      954           0.450000   0.050000  -0.150000         0.0010
      955           0.450000   0.050000  -0.050000         0.0010
      956           0.450000   0.050000   0.050000         0.0010
      957           0.450000   0.050000   0.150000         0.0010
      958           0.450000   0.050000   0.250000         0.0010
      959           0.450000   0.050000   0.350000         0.0010
      960           0.450000   0.050000   0.450000         0.0010
      961           0.450000   0.150000  -0.450000         0.0010
      962           0.450000   0.150000  -0.350000         0.0010
      963           0.450000   0.150000  -0.250000         0.0010
      964           0.450000   0.150000  -0.150000         0.0010
      965           0.450000   0.150000  -0.050000         0.0010
      966           0.450000   0.150000   0.050000         0.0010
      967           0.450000   0.150000   0.150000         0.0010
      968           0.450000   0.150000   0.250000         0.0010
      969           0.450000   0.150000   0.350000         0.0010
      970           0.450000   0.150000   0.450000         0.0010
      971           0.450000   0.250000  -0.450000         0.0010
      972           0.450000   0.250000  -0.350000         0.0010
      973           0.450000   0.250000  -0.250000         0.0010
      974           0.450000   0.250000  -0.150000         0.0010
      975           0.450000   0.250000  -0.050000         0.0010
      976           0.450000   0.250000   0.050000         0.0010
      977           0.450000   0.250000   0.150000         0.0010
      978           0.450000   0.250000   0.250000         0.0010
      979           0.450000   0.250000   0.350000         0.0010
      980           0.450000   0.250000   0.450000         0.0010
      981           0.450000   0.350000  -0.450000         0.0010
      982           0.450000   0.350000  -0.350000         0.0010
      983           0.450000   0.350000  -0.250000         0.0010
      984           0.450000   0.350000  -0.150000         0.0010
      985           0.450000   0.350000  -0.050000         0.0010
      986           0.450000   0.350000   0.050000         0.0010
      987           0.450000   0.350000   0.150000         0.0010
      988           0.450000   0.350000   0.250000         0.0010
      989           0.450000   0.350000   0.350000         0.0010
      990           0.450000   0.350000   0.450000         0.0010
      991           0.450000   0.450000  -0.450000         0.0010
      992           0.450000   0.450000  -0.350000         0.0010
      993           0.450000   0.450000  -0.250000         0.0010
      994           0.450000   0.450000  -0.150000         0.0010
      995           0.450000   0.450000  -0.050000         0.0010
      996           0.450000   0.450000   0.050000         0.0010
      997           0.450000   0.450000   0.150000         0.0010
      998           0.450000   0.450000   0.250000         0.0010
      999           0.450000   0.450000   0.350000         0.0010
     1000           0.450000   0.450000   0.450000         0.0010
--------------------------------------------------------------------------------


********************************************************************************
*  General input information                                                   *
********************************************************************************

  Species output for all configurations : 

--------------------------------------------------------------------------------
  Species    Type    Atomic    Atomic    Charge       Radii (Angs)     Library
                     Number     Mass       (e)     Cova   Ionic  VDW   Symbol
--------------------------------------------------------------------------------
    Mg       Core       12      24.31   2.000000   1.100  0.000  1.640          
    O        Core        8      16.00   0.848190   0.730  0.000  1.360          
    O        Shell       8       0.00  -2.848190   0.730  0.000  1.360          
--------------------------------------------------------------------------------


  Species output for PDF data: 

--------------------------------------------------------------------------------
  Species    Type       bbar     sigma_inc  sigma_coh     
                       (Angs)     (Angs^2)   (Angs^2)     
--------------------------------------------------------------------------------
    Mg       Core     0.5375E-04 0.7950E-09 0.3631E-07
    O        Core     0.5803E-04 0.2987E-11 0.4232E-07
    O        Shell    0.5803E-04 0.2987E-11 0.4232E-07
--------------------------------------------------------------------------------




********************************************************************************
*  PDF Input Settings                                                          *
********************************************************************************


 Pair Distribution Function to be calculated up to  5.0000 A
 500 rbins to be used.
  wmin =    5.0000000000000000      THz   

 Converting to internal frequency units:
 wmin =    31415926535897.930      rad/s 
********************************************************************************
  Lattice summation method               =    Ewald          (3-D)
                                         =    Parry          (2-D)
                                         =    Saunders et al (1-D)
  Accuracy factor for lattice sums       =   12.000


  Time limit = Infinity

  Maximum range for interatomic potentials =    100000.000000 Angstroms

  C6 terms to be calculated in real/reciprocal space by one-centre decomposition

  General interatomic potentials :

--------------------------------------------------------------------------------
Atom  Types   Potential         A         B         C         D     Cutoffs(Ang)
  1     2                                                            Min    Max 
--------------------------------------------------------------------------------
O    s O    s Buckingham    0.228E+05 0.149      27.9      0.00     0.000  8.000
Mg   c O    s Buckingham    0.143E+04 0.295      0.00      0.00     0.000  8.000
O    c O    s Spring (c-s)   74.9      0.00      0.00      0.00     0.000  0.800
--------------------------------------------------------------------------------

********************************************************************************
*  Output for configuration   1                                                *
********************************************************************************


  Components of energy : 

--------------------------------------------------------------------------------
  Interatomic potentials     =          27.64720580 eV
  Monopole - monopole (real) =         -57.50947555 eV
  Monopole - monopole (recip)=        -134.22010884 eV
  Monopole - monopole (total)=        -191.72958439 eV
  Dispersion (real+recip)    =          -1.17463433 eV
--------------------------------------------------------------------------------
  Total lattice energy       =        -165.25701292 eV
--------------------------------------------------------------------------------
  Total lattice energy       =          -15944.7756 kJ/(mole unit cells)
--------------------------------------------------------------------------------


  Number of variables =       39

  Maximum number of calculations  =          1000
  Maximum Hessian update interval =            10
  Maximum step size               =   1.000000000
  Maximum parameter tolerance     =   0.000010000
  Maximum function  tolerance     =   0.000010000
  Maximum gradient  tolerance     =   0.001000000
  Maximum gradient  component     =   0.010000000

  Cell parameters to be optimised using strains

  Newton-Raphson optimiser to be used

  BFGS hessian update to be used

  Start of bulk optimisation :

  Cycle:      0 Energy:      -165.257013  Gnorm:      0.006509  CPU:    0.013
  ** Hessian calculated **
  Cycle:      1 Energy:      -165.257110  Gnorm:      0.000007  CPU:    0.016


  **** Optimisation achieved ****


  Final energy =    -165.25710977 eV
  Final Gnorm  =       0.00000001

  Components of energy : 

--------------------------------------------------------------------------------
  Interatomic potentials     =          27.73465747 eV
  Monopole - monopole (real) =         -57.53480374 eV
  Monopole - monopole (recip)=        -134.27922177 eV
  Monopole - monopole (total)=        -191.81402551 eV
  Dispersion (real+recip)    =          -1.17774172 eV
--------------------------------------------------------------------------------
  Total lattice energy       =        -165.25710977 eV
--------------------------------------------------------------------------------
  Total lattice energy       =          -15944.7849 kJ/(mole unit cells)
--------------------------------------------------------------------------------

  Final fractional coordinates of atoms :

--------------------------------------------------------------------------------
   No.  Atomic        x           y          z          Radius
        Label       (Frac)      (Frac)     (Frac)       (Angs) 
--------------------------------------------------------------------------------
     1  Mg    c     0.000000    0.000000    0.000000    0.000000
     2  Mg    c     0.000000    0.500000    0.500000    0.000000
     3  Mg    c     0.500000    0.000000    0.500000    0.000000
     4  Mg    c     0.500000    0.500000    0.000000    0.000000
     5  O     c     0.500000    0.500000    0.500000    0.000000
     6  O     c     0.500000    0.000000    0.000000    0.000000
     7  O     c     0.000000    0.500000    0.000000    0.000000
     8  O     c     0.000000    0.000000    0.500000    0.000000
     9  O     s     0.500000    0.500000    0.500000    0.000000
    10  O     s     0.500000    0.000000    0.000000    0.000000
    11  O     s     0.000000    0.500000    0.000000    0.000000
    12  O     s     0.000000    0.000000    0.500000    0.000000
--------------------------------------------------------------------------------

  Final Cartesian lattice vectors (Angstroms) :

        4.198151    0.000000    0.000000
        0.000000    4.198151    0.000000
        0.000000    0.000000    4.198151


  Final cell parameters and derivatives :

--------------------------------------------------------------------------------
       a            4.198151 Angstrom     dE/de1(xx)     0.000000 eV/strain
       b            4.198151 Angstrom     dE/de2(yy)     0.000000 eV/strain
       c            4.198151 Angstrom     dE/de3(zz)     0.000000 eV/strain
       alpha       90.000000 Degrees      dE/de4(yz)     0.000000 eV/strain
       beta        90.000000 Degrees      dE/de5(xz)     0.000000 eV/strain
       gamma       90.000000 Degrees      dE/de6(xy)     0.000000 eV/strain
--------------------------------------------------------------------------------

  Primitive cell volume =            73.990197 Angs**3

  Density of cell =      3.618717 g/cm**3

  Non-primitive cell volume =            73.990197 Angs**3


  Final internal derivatives :

--------------------------------------------------------------------------------
   No.  Atomic          a             b             c           Radius
        Label          (eV)          (eV)          (eV)        (eV/Angs)
--------------------------------------------------------------------------------
      1 Mg    c       0.000000      0.000000      0.000000      0.000000
      2 Mg    c       0.000000     -0.000000     -0.000000      0.000000
      3 Mg    c      -0.000000     -0.000000     -0.000000      0.000000
      4 Mg    c      -0.000000     -0.000000      0.000000      0.000000
      5 O     c      -0.000000      0.000000      0.000000      0.000000
      6 O     c      -0.000000     -0.000000      0.000000      0.000000
      7 O     c       0.000000      0.000000      0.000000      0.000000
      8 O     c       0.000000     -0.000000      0.000000      0.000000
      9 O     s      -0.000000      0.000000     -0.000000      0.000000
     10 O     s      -0.000000      0.000000      0.000000      0.000000
     11 O     s       0.000000      0.000000      0.000000      0.000000
     12 O     s       0.000000      0.000000     -0.000000      0.000000
--------------------------------------------------------------------------------
  Maximum abs         0.000000      0.000000      0.000000      0.000000
--------------------------------------------------------------------------------


  Born effective charge tensors : 

-------------------------------------------------------------------------------
  Atom             x           y             z
-------------------------------------------------------------------------------
   1 Mg    x       1.9739      0.0000      0.0000
           y       0.0000      1.9739     -0.0000
           z      -0.0000     -0.0000      1.9739
-------------------------------------------------------------------------------
   2 Mg    x       1.9739      0.0000      0.0000
           y       0.0000      1.9739     -0.0000
           z      -0.0000      0.0000      1.9739
-------------------------------------------------------------------------------
   3 Mg    x       1.9739      0.0000     -0.0000
           y       0.0000      1.9739     -0.0000
           z       0.0000     -0.0000      1.9739
-------------------------------------------------------------------------------
   4 Mg    x       1.9739      0.0000      0.0000
           y       0.0000      1.9739      0.0000
           z       0.0000      0.0000      1.9739
-------------------------------------------------------------------------------
   5 O     x      -1.9739     -0.0000      0.0000
           y      -0.0000     -1.9739      0.0000
           z       0.0000      0.0000     -1.9739
-------------------------------------------------------------------------------
   6 O     x      -1.9739     -0.0000      0.0000
           y      -0.0000     -1.9739     -0.0000
           z       0.0000     -0.0000     -1.9739
-------------------------------------------------------------------------------
   7 O     x      -1.9739     -0.0000     -0.0000
           y      -0.0000     -1.9739      0.0000
           z      -0.0000      0.0000     -1.9739
-------------------------------------------------------------------------------
   8 O     x      -1.9739     -0.0000     -0.0000
           y      -0.0000     -1.9739     -0.0000
           z      -0.0000     -0.0000     -1.9739
-------------------------------------------------------------------------------




  Elastic Constant Matrix: (Units=GPa)

-------------------------------------------------------------------------------
  Indices      1         2         3         4         5         6    
-------------------------------------------------------------------------------
       1    393.2303  164.2507  164.2507    0.0000    0.0000    0.0000
       2    164.2507  393.2303  164.2507    0.0000    0.0000    0.0000
       3    164.2507  164.2507  393.2303    0.0000    0.0000    0.0000
       4      0.0000    0.0000    0.0000  164.2507   -0.0000    0.0000
       5      0.0000    0.0000    0.0000   -0.0000  164.2507    0.0000
       6      0.0000    0.0000    0.0000    0.0000    0.0000  164.2507
-------------------------------------------------------------------------------


  Elastic Compliance Matrix: (Units=1/GPa)

-------------------------------------------------------------------------------
  Indices      1         2         3         4         5         6    
-------------------------------------------------------------------------------
       1    0.003373 -0.000994 -0.000994  0.000000 -0.000000 -0.000000
       2   -0.000994  0.003373 -0.000994 -0.000000  0.000000 -0.000000
       3   -0.000994 -0.000994  0.003373 -0.000000 -0.000000  0.000000
       4    0.000000 -0.000000 -0.000000  0.006088  0.000000 -0.000000
       5   -0.000000  0.000000 -0.000000  0.000000  0.006088 -0.000000
       6   -0.000000 -0.000000  0.000000 -0.000000 -0.000000  0.006088
-------------------------------------------------------------------------------

  Mechanical properties :

-------------------------------------------------------------------------------
  Convention :                    Reuss         Voigt         Hill
-------------------------------------------------------------------------------
  Bulk  Modulus (GPa)     =     240.57728     240.57728     240.57728
  Shear Modulus (GPa)     =     139.92448     144.34637     142.13542
-------------------------------------------------------------------------------
  Velocity S-wave (km/s)  =       6.21827       6.31576       6.26720
  Velocity P-wave (km/s)  =      10.86449      10.93922      10.90192
-------------------------------------------------------------------------------
  Compressibility (1/GPa) =    0.00415667
-------------------------------------------------------------------------------
  Stress axis :                     x             y             z
-------------------------------------------------------------------------------
  Youngs Moduli (GPa)     =     296.44389     296.44389     296.44389
-------------------------------------------------------------------------------
  Poissons Ratio (x)      =                     0.29463       0.29463
  Poissons Ratio (y)      =       0.29463                     0.29463
  Poissons Ratio (z)      =       0.29463       0.29463
-------------------------------------------------------------------------------


  Piezoelectric Strain Matrix: (Units=C/m**2)

-------------------------------------------------------------------------------
  Indices      1         2         3         4         5         6    
-------------------------------------------------------------------------------
       x     0.00000   0.00000   0.00000   0.00000   0.00000   0.00000
       y    -0.00000   0.00000  -0.00000   0.00000   0.00000   0.00000
       z     0.00000   0.00000  -0.00000   0.00000   0.00000   0.00000
-------------------------------------------------------------------------------


  Piezoelectric Stress Matrix: (Units=10**-11 C/N)

-------------------------------------------------------------------------------
  Indices      1         2         3         4         5         6    
-------------------------------------------------------------------------------
       x     0.00000  -0.00000  -0.00000   0.00000   0.00000   0.00000
       y    -0.00000   0.00000  -0.00000   0.00000   0.00000   0.00000
       z     0.00000   0.00000  -0.00000   0.00000   0.00000   0.00000
-------------------------------------------------------------------------------


  Static dielectric constant tensor : 

-------------------------------------------------------------------------------
              x         y         z
-------------------------------------------------------------------------------
       x     8.37439   0.00000  -0.00000
       y     0.00000   8.37439   0.00000
       z    -0.00000   0.00000   8.37439
--------------------------------------------------------------------------------

  High frequency dielectric constant tensor : 

-------------------------------------------------------------------------------
              x         y         z
-------------------------------------------------------------------------------
       x     2.17284   0.00000  -0.00000
       y     0.00000   2.17284   0.00000
       z    -0.00000   0.00000   2.17284
-------------------------------------------------------------------------------

  Static refractive indices : 

-------------------------------------------------------------------------------
    1 =    2.89385      2 =    2.89385      3 =    2.89385
-------------------------------------------------------------------------------

  High frequency refractive indices : 

-------------------------------------------------------------------------------
    1 =    1.47406      2 =    1.47406      3 =    1.47406
-------------------------------------------------------------------------------


  Phonon Calculation : 

  Number of k points for this configuration =     1000

--------------------------------------------------------------------------------
  Start of PDF calculation
--------------------------------------------------------------------------------

  PDF peak widths being written to example45.wid                                                                   

  PDF information:

  Maximum radius        =  5.000 Ang
  Number density        =  0.108 Ang(^-3)
  (Sum{c_i bbar_i} )^2  =  0.3124E-08

  Mg_Mg partial c_ic_j   =    0.2500
  O_Mg partial c_ic_j   =    0.5000
  O_O partial c_ic_j   =    0.2500
  Using primitive cell parameters   4.1982   4.1982   4.1982
  Testing primitive vectors with x,y,z=-(n+1) to n, n=    2

  Partial weightings:

  partial    1 (   Mg   Mg): w_ij =   0.9249,n =   16,cicjbibj =   0.722266E-09
  partial    2 (    O   Mg): w_ij =   0.9985,n =   32,cicjbibj =   0.155956E-08
  partial    3 (    O    O): w_ij =   1.0780,n =   16,cicjbibj =   0.841870E-09

  Width output to file complete

  PDF statistics:

  Maximum width^2  was  0.6320E-02 Ang^2
  Number of pairs       448
  Angular frequency range used:
   0.321606E+14 to  0.153661E+15 rad/s 
   0.511852E+01 to  0.244559E+02 THz   

  PDF output being written to example45.pdfs
  partial PDF output   1 being written to example45_1_Mg_Mg.pdfs
  partial PDF output   2 being written to example45_2_O_Mg.pdfs
  partial PDF output   3 being written to example45_3_O_O.pdfs
--------------------------------------------------------------------------------
  End of PDF calculation
--------------------------------------------------------------------------------

--------------------------------------------------------------------------------
  Phonon properties (per mole of unit cells): Temperature =    290.000 K
--------------------------------------------------------------------------------
  Zero point energy            =        0.647369 eV
  Entropy                      =        0.000960 eV/K
                               =       92.615956 J/(mol.K)
  Helmholtz free-energy        =     -164.705511 eV
                               =   -15891.562650 kJmol-1
  Free energy (equipartition)  =     -164.826425 eV
  - T*S       (equipartition)  =       -0.169081 eV
  Uvib        (equipartition)  =        0.599767 eV
  Mean kinetic energy          =        0.414985 eV
  Heat capacity - const volume =        0.001417 eV/K
                               =      136.735411 J/(mol.K)
--------------------------------------------------------------------------------

  Phonon density of states : 

--------------------------------------------------------------------------------
 Frequency (cm-1) Density of States                                             
--------------------------------------------------------------------------------
    0.00000 |                                                              0.000
   12.74627 |                                                              0.000
   25.49255 |                                                              0.000
   38.23882 |                                                              0.001
   50.98509 |                                                              0.000
   63.73136 |                                                              0.000
   76.47764 |**                                                            0.002
   89.22391 |                                                              0.001
  101.97018 |                                                              0.001
  114.71646 |                                                              0.001
  127.46273 |***                                                           0.004
  140.20900 |*                                                             0.002
  152.95528 |***                                                           0.004
  165.70155 |**                                                            0.003
  178.44782 |****                                                          0.005
  191.19409 |********                                                      0.009
  203.94037 |**                                                            0.003
  216.68664 |********                                                      0.009
  229.43291 |*********                                                     0.010
  242.17919 |**********                                                    0.011
  254.92546 |***************                                               0.016
  267.67173 |******************                                            0.019
  280.41800 |***************                                               0.016
  293.16428 |*****************************************                     0.043
  305.91055 |***********************************                           0.037
  318.65682 |*************************                                     0.026
  331.40310 |****************************                                  0.030
  344.14937 |******************                                            0.019
  356.89564 |***************************                                   0.029
  369.64192 |************************************                          0.038
  382.38819 |*******************************************                   0.046
  395.13446 |***************************************                       0.041
  407.88073 |************************************************************  0.062
  420.62701 |***********************************************               0.049
  433.37328 |*******************************************                   0.045
  446.11955 |***************************************************           0.054
  458.86583 |*********************************                             0.035
  471.61210 |*****************************************                     0.043
  484.35837 |***********************************************               0.049
  497.10464 |***************                                               0.016
  509.85092 |************                                                  0.013
  522.59719 |*************                                                 0.014
  535.34346 |*********                                                     0.010
  548.08974 |***************                                               0.016
  560.83601 |***********                                                   0.012
  573.58228 |**************                                                0.015
  586.32856 |**************                                                0.015
  599.07483 |************                                                  0.013
  611.82110 |**********                                                    0.011
  624.56737 |*********                                                     0.010
  637.31365 |******                                                        0.007
  650.05992 |********                                                      0.009
  662.80619 |*********                                                     0.010
  675.55247 |********                                                      0.009
  688.29874 |********                                                      0.008
  701.04501 |**********                                                    0.011
  713.79128 |                                                              0.001
  726.53756 |*********                                                     0.010
  739.28383 |******                                                        0.006
  752.03010 |**                                                            0.003
  764.77638 |********                                                      0.009
  777.52265 |**                                                            0.002
  790.26892 |***                                                           0.004
  803.01520 |**                                                            0.003
--------------------------------------------------------------------------------



  Time to end of optimisation =       4.7800 seconds


  Peak dynamic memory used =       0.93 MB 


  Timing analysis for GULP :

--------------------------------------------------------------------------------
  Task / Subroutine                                          Time (Seconds)
--------------------------------------------------------------------------------
  Calculation of reciprocal space energy and derivatives          1.3702
  Calculation of real space energy and derivatives                1.4103
  Calculation of phonons                                          4.7547
  Calculation of scattering                                       0.0000
  Calculation of matrix inversion                                 0.0060
  Disk read/write operations to scratch files                     0.0004
  Symmetry generation of equivalent positions                     0.0009
--------------------------------------------------------------------------------
  Total CPU time                                                  4.7801
--------------------------------------------------------------------------------


  Job Finished at 11:00.34  8th October    2013                               

