********************************************************************************
*                       GENERAL UTILITY LATTICE PROGRAM                        *
*                                 Julian Gale                                  *
*                      Nanochemistry Research Institute                        *
*                           Department of Chemistry                            *
*                    Curtin University, Western Australia                      *
********************************************************************************
* Version = 4.1.0 * Last modified =   7th July 2013                            *
********************************************************************************
*  fit          - perform fitting run                                          *
*  optimise     - perform optimisation run after fitting                       *
*  conp         - constant pressure calculation                                *
*  simultaneous - relax shell positions and radii during fitting               *
*  compare      - compare initial and final structures                         *
********************************************************************************

  Job Started  at 09:00.37 29th July       2013                               

  Number of CPUs =     1

  Host name      = M-A0002884.local                        


  Total number of configurations input =   1

********************************************************************************
*  Input for Configuration =   1                                               *
********************************************************************************

  Formula = La2O3                                                       

  Number of irreducible atoms/shells =       6


  Total number atoms/shells =      10

  Dimensionality = 3               :  Bulk   


  Symmetry :

  Crystal family                   :  Hexagonal   
  Crystal class  (Groth - 1921)    :  Ditrigonal Scalenohedral             

  Space group (centrosymmetric)    :  P -3 M 1        

  Patterson group                  :  P -3 m 1 

  Cartesian lattice vectors (Angstroms) :

        3.938000    0.000000    0.000000
       -1.969000    3.410408    0.000000
        0.000000    0.000000    6.128000

  Cell parameters (Angstroms/Degrees):

  a =       3.9380    alpha =  90.0000
  b =       3.9380    beta  =  90.0000
  c =       6.1280    gamma = 120.0000

  Initial cell volume =          82.300185 Angs**3

  Temperature of configuration =  0.000     K 

  Pressure of configuration =         0.000 GPa 

  Fractional coordinates of asymmetric unit :

--------------------------------------------------------------------------------
   No.  Atomic       x           y          z         Charge      Occupancy
        Label      (Frac)      (Frac)     (Frac)        (e)         (Frac)  
--------------------------------------------------------------------------------
      1 La    c    0.333333    0.666667    0.245000 *   9.00000    1.000000    
      2 O     c    0.000000    0.000000    0.000000     0.50000    1.000000    
      3 O     c    0.333333    0.666667    0.645000 *   0.50000    1.000000    
      4 La    s    0.333333    0.666667    0.245000 *  -6.00000    1.000000    
      5 O     s    0.000000    0.000000    0.000000    -2.50000    1.000000    
      6 O     s    0.333333    0.666667    0.645000 *  -2.50000    1.000000    
--------------------------------------------------------------------------------


  Constraints : 

--------------------------------------------------------------------------------
  Constraint no.      Unconstrained     Constrained    Coefficient    Offset
                         Variable         Variable
--------------------------------------------------------------------------------
           1              Strain 1        Strain 2       1.00000      0.0000
--------------------------------------------------------------------------------


********************************************************************************
*  General input information                                                   *
********************************************************************************

  Species output for all configurations : 

--------------------------------------------------------------------------------
  Species    Type    Atomic    Atomic    Charge       Radii (Angs)     Library
                     Number     Mass       (e)     Cova   Ionic  VDW   Symbol
--------------------------------------------------------------------------------
    La       Core       57     138.91   9.000000   1.870  0.000  2.790          
    La       Shell      57       0.00  -6.000000   1.870  0.000  2.790          
    O        Core        8      16.00   0.500000   0.730  0.000  1.360          
    O        Shell       8       0.00  -2.500000   0.730  0.000  1.360          
--------------------------------------------------------------------------------


  Lattice summation method               =    Ewald          (3-D)
                                         =    Parry          (2-D)
                                         =    Saunders et al (1-D)
  Accuracy factor for lattice sums       =   12.000


  Time limit = Infinity

  Maximum range for interatomic potentials =    100000.000000 Angstroms

  C6 terms to be calculated in real and reciprocal space 

  General interatomic potentials :

--------------------------------------------------------------------------------
Atom  Types   Potential         A         B         C         D     Cutoffs(Ang)
  1     2                                                            Min    Max 
--------------------------------------------------------------------------------
O    s La   s Buckingham    0.570E+04 0.299      38.9      0.00     0.000 24.000
O    s O    s Buckingham     577.     0.335      0.00      0.00     0.000 20.000
La   s La   s Buckingham    0.858E+05 0.220      6.86      0.00     0.000 20.000
La   c La   s Spring (c-s)   460.      0.00      0.00      0.00     0.000  1.000
O    c O    s Spring (c-s)   27.0      0.00      0.00      0.00     0.000  1.000
--------------------------------------------------------------------------------


  Number of variables   =    3
  Number of observables =    6

--------------------------------------------------------------------------------
   Observable no.  Type           Observable    Weight       Reference  Confign 
--------------------------------------------------------------------------------
          1        Derivative        0.000000        1.0000    a           1
          2        Derivative        0.000000        1.0000    c           1
          3        Derivative        0.000000        1.0000    1 z         1
          4        Derivative        0.000000        1.0000    3 z         1
          5        Derivative        0.000000        1.0000    4 z         1
          6        Derivative        0.000000        1.0000    6 z         1
--------------------------------------------------------------------------------

  Variables :

--------------------------------------------------------------------------------
     Parameter No.       Parameter Value          Parameter Type  Species
--------------------------------------------------------------------------------
             1                  0.298850          Buckingham rho 
             2                  0.245000          Shell position    1   4 z
             3                  0.645000          Shell position    1   6 z
--------------------------------------------------------------------------------

  Symmetry constraints used for fitting
  Simultaneous optimisation will be performed during fitting
  First derivatives of residuals to be used in fitting

  Maximum no. of cycles   =       5000
  Maximum step size       =  1000.0000
  Tolerance on parameters =  0.0000100
  Tolerance on function   =  0.0000100
  Tolerance on gradient   =  0.0001000
  Differencing interval   =  0.0001000

  Start of fitting :

  Cycle:      0  Sum sqs:  186796.127186  Gnorm:**************  CPU:    0.013
  ** Hessian calculated **
  Cycle:      1  Sum sqs:    4958.253804  Gnorm: 319610.790513  CPU:    0.031
  Cycle:      2  Sum sqs:    3223.565428  Gnorm: 266475.480078  CPU:    0.048
  Cycle:      3  Sum sqs:    1654.429510  Gnorm: 845106.276079  CPU:    0.064
  Cycle:      4  Sum sqs:     170.483930  Gnorm: 186065.445563  CPU:    0.080
  Cycle:      5  Sum sqs:      45.662849  Gnorm:  10334.718360  CPU:    0.094
  Cycle:      6  Sum sqs:      44.967418  Gnorm:    373.163432  CPU:    0.110
  Cycle:      7  Sum sqs:      44.966750  Gnorm:     12.398966  CPU:    0.126
  Cycle:      8  Sum sqs:      44.966749  Gnorm:      1.285928  CPU:    0.142


  **** Fit completed successfully ****


  Final sum of squares =            44.966749

  Final gradient norm  =             1.285928

  Final values of parameters :

--------------------------------------------------------------------------------
 Parameter No.    Parameter        Parameter      Parameter Type  Species
                  Original         Final                                 
--------------------------------------------------------------------------------
         1              0.298850         0.300021 Buckingham rho 
         2              0.245000         0.237567 Shell position    1   4 z
         3              0.645000         0.643176 Shell position    1   6 z
--------------------------------------------------------------------------------


  Final values of numerical parameter gradients :

--------------------------------------------------------------------------------
     Parameter No.       Parameter Gradient      Parameter Type  Species
--------------------------------------------------------------------------------
             1                 -0.045887          Buckingham rho 
             2                 -1.110950          Shell position    1   4 z
             3                  0.645985          Shell position    1   6 z
--------------------------------------------------------------------------------


  Final values of residuals :

--------------------------------------------------------------------------------
   Observable no.  Type            Observable   Calculated    Residual  Error(%)
--------------------------------------------------------------------------------
          1        Derivative         0.00000     -1.10398      1.21878
          2        Derivative         0.00000      1.24000      1.53760
          3        Derivative         0.00000     -2.02941      4.11849
          4        Derivative         0.00000      4.46291     19.91758
          5        Derivative         0.00000     -1.60180      2.56577
          6        Derivative         0.00000      3.95076     15.60853
--------------------------------------------------------------------------------

  Comparison of initial and final observables :

--------------------------------------------------------------------------------
   Observable no.  Type            Observable   Initial       Final             
--------------------------------------------------------------------------------
          1        Derivative         0.00000     -0.94380     -1.10398
          2        Derivative         0.00000     -1.81485      1.24000
          3        Derivative         0.00000   -314.30330     -2.02941
          4        Derivative         0.00000      9.06711      4.46291
          5        Derivative         0.00000    294.80331     -1.60180
          6        Derivative         0.00000    -40.78013      3.95076
--------------------------------------------------------------------------------

  Maximum range for interatomic potentials =    100000.000000 Angstroms

  C6 terms to be calculated in real and reciprocal space 

  General interatomic potentials :

--------------------------------------------------------------------------------
Atom  Types   Potential         A         B         C         D     Cutoffs(Ang)
  1     2                                                            Min    Max 
--------------------------------------------------------------------------------
O    s La   s Buckingham    0.570E+04 0.300      38.9      0.00     0.000 24.000
O    s O    s Buckingham     577.     0.335      0.00      0.00     0.000 20.000
La   s La   s Buckingham    0.858E+05 0.220      6.86      0.00     0.000 20.000
La   c La   s Spring (c-s)   460.      0.00      0.00      0.00     0.000  1.000
O    c O    s Spring (c-s)   27.0      0.00      0.00      0.00     0.000  1.000
--------------------------------------------------------------------------------



  Total time to end of fitting =       0.1434 seconds

********************************************************************************
*  Output for configuration   1                                                *
********************************************************************************


  Components of energy : 

--------------------------------------------------------------------------------
  Interatomic potentials     =          20.78146684 eV
  Monopole - monopole (real) =         855.30153101 eV
  Monopole - monopole (recip)=       -1003.52073940 eV
  Monopole - monopole (total)=        -148.21920840 eV
  Dispersion (real+recip)    =          -2.44102899 eV
--------------------------------------------------------------------------------
  Total lattice energy       =        -129.87877054 eV
--------------------------------------------------------------------------------
  Total lattice energy       =          -12531.3160 kJ/(mole unit cells)
--------------------------------------------------------------------------------


  Number of variables =        6

  Maximum number of calculations  =          1000
  Maximum Hessian update interval =            10
  Maximum step size               =   1.000000000
  Maximum parameter tolerance     =   0.000010000
  Maximum function  tolerance     =   0.000010000
  Maximum gradient  tolerance     =   0.001000000
  Maximum gradient  component     =   0.010000000

  Symmetry constrained optimisation

  Symmetry used for second derivatives

  Cell parameters to be optimised using strains

  Newton-Raphson optimiser to be used

  BFGS hessian update to be used

  Start of bulk optimisation :

  Cycle:      0 Energy:      -129.878771  Gnorm:      1.117621  CPU:    0.147
  ** Hessian calculated **
  Cycle:      1 Energy:      -129.934853  Gnorm:      0.822432  CPU:    0.151
  Cycle:      2 Energy:      -129.935756  Gnorm:      0.162250  CPU:    0.155
  Cycle:      3 Energy:      -129.935818  Gnorm:      0.007761  CPU:    0.160


  **** Optimisation achieved ****


  Final energy =    -129.93581787 eV
  Final Gnorm  =       0.00023432

  Components of energy : 

--------------------------------------------------------------------------------
  Interatomic potentials     =          21.35004978 eV
  Monopole - monopole (real) =         855.15624808 eV
  Monopole - monopole (recip)=       -1003.98838481 eV
  Monopole - monopole (total)=        -148.83213672 eV
  Dispersion (real+recip)    =          -2.45373092 eV
--------------------------------------------------------------------------------
  Total lattice energy       =        -129.93581787 eV
--------------------------------------------------------------------------------
  Total lattice energy       =          -12536.8202 kJ/(mole unit cells)
--------------------------------------------------------------------------------

  Final asymmetric unit coordinates :

--------------------------------------------------------------------------------
   No.  Atomic        x           y           z         Radius
        Label       (Frac)      (Frac)      (Frac)       (Angs) 
--------------------------------------------------------------------------------
     1  La    c     0.333333    0.666667    0.248457    0.000000
     2  O     c     0.000000    0.000000    0.000000    0.000000
     3  O     c     0.333333    0.666667    0.634382    0.000000
     4  La    s     0.333333    0.666667    0.239702    0.000000
     5  O     s     0.000000    0.000000    0.000000    0.000000
     6  O     s     0.333333    0.666667    0.633084    0.000000
--------------------------------------------------------------------------------

  Final Cartesian lattice vectors (Angstroms) :

        3.948687    0.000000    0.000000
       -1.974344    3.419663    0.000000
        0.000000    0.000000    6.086674


  Final cell parameters and derivatives :

--------------------------------------------------------------------------------
       a            3.948687 Angstrom     dE/de1(xx)    -0.000496 eV/strain
       b            3.948687 Angstrom     dE/de2(yy)     0.000000 eV/strain
       c            6.086674 Angstrom     dE/de3(zz)     0.000012 eV/strain
       alpha       90.000000 Degrees      dE/de4(yz)     0.000000 eV/strain
       beta        90.000000 Degrees      dE/de5(xz)     0.000000 eV/strain
       gamma      120.000000 Degrees      dE/de6(xy)     0.000000 eV/strain
--------------------------------------------------------------------------------

  Primitive cell volume =            82.189454 Angs**3

  Density of cell =      6.582906 g/cm**3

  Non-primitive cell volume =            82.189454 Angs**3


  Final internal derivatives :

--------------------------------------------------------------------------------
   No.  Atomic          a             b             c           Radius
        Label          (eV)          (eV)          (eV)        (eV/Angs)
--------------------------------------------------------------------------------
      1 La    c       0.000000      0.000000      0.000546      0.000000
      2 O     c       0.000000      0.000000      0.000000      0.000000
      3 O     c       0.000000      0.000000     -0.001044      0.000000
      4 La    s       0.000000      0.000000      0.000168      0.000000
      5 O     s       0.000000      0.000000      0.000000      0.000000
      6 O     s       0.000000      0.000000     -0.000561      0.000000
--------------------------------------------------------------------------------
  Maximum abs         0.000000      0.000000      0.001044      0.000000
--------------------------------------------------------------------------------

  Comparison of initial and final structures : 

--------------------------------------------------------------------------------
  Parameter   Initial value   Final value   Difference    Units      Percent
--------------------------------------------------------------------------------
    Volume        82.300185     82.189454    -0.110731    Angs**3     -0.13
    a              3.938000      3.948687     0.010687    Angstroms    0.27
    b              3.938000      3.948687     0.010687    Angstroms    0.27
    c              6.128000      6.086674    -0.041326    Angstroms   -0.67
    alpha         90.000000     90.000000     0.000000    Degrees      0.00
    beta          90.000000     90.000000     0.000000    Degrees      0.00
    gamma        120.000000    120.000000     0.000000    Degrees      0.00
      1 x          0.333333      0.333333     0.000000    Fractional   0.00
      1 y          0.666667      0.666667     0.000000    Fractional   0.00
      1 z          0.245000      0.248457     0.003457    Fractional   1.41
      2 x          0.000000      0.000000     0.000000    Fractional   0.00
      2 y          0.000000      0.000000     0.000000    Fractional   0.00
      2 z          0.000000      0.000000     0.000000    Fractional   0.00
      3 x          0.333333      0.333333     0.000000    Fractional   0.00
      3 y          0.666667      0.666667     0.000000    Fractional   0.00
      3 z          0.645000      0.634382     0.010618    Fractional   1.65
      4 x          0.333333      0.333333     0.000000    Fractional   0.00
      4 y          0.666667      0.666667     0.000000    Fractional   0.00
      4 z          0.237567      0.239702     0.002135    Fractional   0.90
      5 x          0.000000      0.000000     0.000000    Fractional   0.00
      5 y          0.000000      0.000000     0.000000    Fractional   0.00
      5 z          0.000000      0.000000     0.000000    Fractional   0.00
      6 x          0.333333      0.333333     0.000000    Fractional   0.00
      6 y          0.666667      0.666667     0.000000    Fractional   0.00
      6 z          0.643176      0.633084     0.010092    Fractional   1.57
--------------------------------------------------------------------------------


  Time to end of optimisation =       0.1640 seconds


  Peak dynamic memory used =       0.51 MB 


  Timing analysis for GULP :

--------------------------------------------------------------------------------
  Task / Subroutine                                          Time (Seconds)
--------------------------------------------------------------------------------
  Calculation of reciprocal space energy and derivatives          0.0004
  Calculation of reciprocal space energy using symmetry           0.0390
  Calculation of real space energy using symmetry                 0.1175
  Sum of squares for fitting                                      0.0029
  Symmetry generation of equivalent positions                     0.0021
--------------------------------------------------------------------------------
  Total CPU time                                                  0.1641
--------------------------------------------------------------------------------


  Dump file written as example4.grs                                            


  Job Finished at 09:00.37 29th July       2013                               

