********************************************************************************
*                       GENERAL UTILITY LATTICE PROGRAM                        *
*                                 Julian Gale                                  *
*                      Nanochemistry Research Institute                        *
*                           Department of Chemistry                            *
*                    Curtin University, Western Australia                      *
********************************************************************************
* Version = 4.1.3 * Last modified =   8th October 2013                         *
********************************************************************************
 Copying current pdf block settings to all configurations
*  optimise     - perform optimisation run                                     *
*  conv         - constant volume calculation                                  *
*  phonon       - calculate phonons for final geometry                         *
*  eigenvectors - output phonon eigenvectors                                   *
*  nosymmetry   - turn off symmetry after initial structure generation         *
*  full         - generate full unit cell when symmetry is removed             *
*  nofrequency  - suppress frequency output after phonon calculation           *
*  noksymmetry  - do not use Brillouin zone symmetry when generating k points  *
*  nokpoints    - do not print out list of k points                            *
*  makeEigenArrays - store all eigenvectors and frequencies after calculation  *
*  coreinfo     - output atomic information for "cores" used                   *
*                 in phonon calculations                                       *
*  PDF          - calculate Pair Distribution Functions                        *
*  nowidth      - suppress output of peak widths for PDFs                      *
*  nopartial    - suppress output of partial Pair Distribution Functions       *
********************************************************************************
* MT Dove fitted potentials for Ca/Sr titanates used for multiple configuratio *
* Both partial and width output is suppressed.                                 *
* This is a test file, so small shrink factors have been used.                 *
* Convergence of phonon properties with k points has NOT been achieved         *
********************************************************************************


  Job Started  at 11:00.34  8th October    2013                               

  Number of CPUs =     1

  Host name      = M-A0002884.local                        


  Total number of configurations input =   4

********************************************************************************
*  Input for Configuration =   1 : Ca0.25Sr0.75TiO3                            *
********************************************************************************

  Formula = CaSr3Ti4O12                                                 

  Number of irreducible atoms/shells =      36


  Total number atoms/shells =      36

  Dimensionality = 3               :  Bulk   



  Cartesian lattice vectors (Angstroms) :

        5.470000    0.000000    0.000000
        0.000000    5.470000    0.000000
        0.000000    0.000000    7.730000

  Cell parameters (Angstroms/Degrees):

  a =       5.4700    alpha =  90.0000
  b =       5.4700    beta  =  90.0000
  c =       7.7300    gamma =  90.0000

  Initial cell volume =         231.288557 Angs**3

  Shrinking factors =      2     2     2

  Temperature of configuration =  0.000     K 

  Pressure of configuration =         0.000 GPa 

  Fractional coordinates of asymmetric unit :

--------------------------------------------------------------------------------
   No.  Atomic       x           y          z         Charge      Occupancy
        Label      (Frac)      (Frac)     (Frac)        (e)         (Frac)  
--------------------------------------------------------------------------------
      1 Ca    c    0.950000 *  0.263000 *  0.250000     2.00000    0.250000    
      2 Ca    c    0.450000 *  0.737000 *  0.750000 *   2.00000    0.250000    
      3 Sr    c    0.950000    0.263000    0.250000     2.00000    0.750000    
      4 Sr    c    0.450000    0.737000    0.750000     2.00000    0.750000    
      5 Ca    c    0.446000 *  0.760000 *  0.250000 *   2.00000    0.250000    
      6 Ca    c    0.946000 *  0.240000 *  0.750000 *   2.00000    0.250000    
      7 Sr    c    0.446000    0.760000    0.250000     2.00000    0.750000    
      8 Sr    c    0.946000    0.240000    0.750000     2.00000    0.750000    
      9 Ti    c    0.965000 *  0.749000 *  0.999000 *   4.00000    1.000000    
     10 Ti    c    0.465000 *  0.251000 *  0.001000 *   4.00000    1.000000    
     11 Ti    c    0.465000 *  0.251000 *  0.499000 *   4.00000    1.000000    
     12 Ti    c    0.965000 *  0.749000 *  0.501000 *   4.00000    1.000000    
     13 O1    c    0.910000 *  0.746000 *  0.250000 *   0.84819    1.000000    
     14 O1    c    0.410000 *  0.254000 *  0.750000 *   0.84819    1.000000    
     15 O2    c    0.172000 *  0.031000 *  0.027000 *   0.84819    1.000000    
     16 O2    c    0.672000 *  0.969000 *  0.973000 *   0.84819    1.000000    
     17 O2    c    0.672000 *  0.969000 *  0.527000 *   0.84819    1.000000    
     18 O2    c    0.172000 *  0.031000 *  0.473000 *   0.84819    1.000000    
     19 O3    c    0.006000 *  0.757000 *  0.750000 *   0.84819    1.000000    
     20 O3    c    0.506000 *  0.243000 *  0.250000 *   0.84819    1.000000    
     21 O4    c    0.719000 *  0.485000 *  0.976000 *   0.84819    1.000000    
     22 O4    c    0.219000 *  0.515000 *  0.024000 *   0.84819    1.000000    
     23 O4    c    0.219000 *  0.515000 *  0.476000 *   0.84819    1.000000    
     24 O4    c    0.719000 *  0.485000 *  0.524000 *   0.84819    1.000000    
     25 O1    s    0.910000 *  0.746000 *  0.250000 *  -2.84819    1.000000    
     26 O1    s    0.410000 *  0.254000 *  0.750000 *  -2.84819    1.000000    
     27 O2    s    0.172000 *  0.031000 *  0.027000 *  -2.84819    1.000000    
     28 O2    s    0.672000 *  0.969000 *  0.973000 *  -2.84819    1.000000    
     29 O2    s    0.672000 *  0.969000 *  0.527000 *  -2.84819    1.000000    
     30 O2    s    0.172000 *  0.031000 *  0.473000 *  -2.84819    1.000000    
     31 O3    s    0.006000 *  0.757000 *  0.750000 *  -2.84819    1.000000    
     32 O3    s    0.506000 *  0.243000 *  0.250000 *  -2.84819    1.000000    
     33 O4    s    0.719000 *  0.485000 *  0.976000 *  -2.84819    1.000000    
     34 O4    s    0.219000 *  0.515000 *  0.024000 *  -2.84819    1.000000    
     35 O4    s    0.219000 *  0.515000 *  0.476000 *  -2.84819    1.000000    
     36 O4    s    0.719000 *  0.485000 *  0.524000 *  -2.84819    1.000000    
--------------------------------------------------------------------------------


  Constraints : 

--------------------------------------------------------------------------------
  Constraint no.      Unconstrained     Constrained    Coefficient    Offset
                         Variable         Variable
--------------------------------------------------------------------------------
           1                 1 x             3 x         1.00000      0.0000
           2                 1 y             3 y         1.00000      0.0000
           3                 1 z             3 z         1.00000      0.0000
           4                 2 x             4 x         1.00000      0.0000
           5                 2 y             4 y         1.00000      0.0000
           6                 2 z             4 z         1.00000      0.0000
           7                 5 x             7 x         1.00000      0.0000
           8                 5 y             7 y         1.00000      0.0000
           9                 5 z             7 z         1.00000      0.0000
          10                 6 x             8 x         1.00000      0.0000
          11                 6 y             8 y         1.00000      0.0000
          12                 6 z             8 z         1.00000      0.0000
--------------------------------------------------------------------------------

  PDF uses Gamma centred Brillouin zone with no symmetry reduction


********************************************************************************
*  Input for Configuration =   2 : CaSr(TiO3)2                                 *
********************************************************************************

  Formula = Ca2Sr2Ti4O12                                                

  Number of irreducible atoms/shells =      32


  Total number atoms/shells =      32

  Dimensionality = 3               :  Bulk   



  Cartesian lattice vectors (Angstroms) :

        5.470000    0.000000    0.000000
        0.000000    5.470000    0.000000
        0.000000    0.000000    7.730000

  Cell parameters (Angstroms/Degrees):

  a =       5.4700    alpha =  90.0000
  b =       5.4700    beta  =  90.0000
  c =       7.7300    gamma =  90.0000

  Initial cell volume =         231.288557 Angs**3

  Shrinking factors =      2     2     2

  Temperature of configuration =  0.000     K 

  Pressure of configuration =         0.000 GPa 

  Fractional coordinates of asymmetric unit :

--------------------------------------------------------------------------------
   No.  Atomic       x           y          z         Charge      Occupancy
        Label      (Frac)      (Frac)     (Frac)        (e)         (Frac)  
--------------------------------------------------------------------------------
      1 Ca    c    0.950000    0.263000    0.250000     2.00000    1.000000    
      2 Ca    c    0.450000 *  0.737000 *  0.750000 *   2.00000    1.000000    
      3 Sr    c    0.446000 *  0.760000 *  0.250000 *   2.00000    1.000000    
      4 Sr    c    0.946000 *  0.240000 *  0.750000 *   2.00000    1.000000    
      5 Ti    c    0.965000 *  0.749000 *  0.999000 *   4.00000    1.000000    
      6 Ti    c    0.465000 *  0.251000 *  0.001000 *   4.00000    1.000000    
      7 Ti    c    0.465000 *  0.251000 *  0.499000 *   4.00000    1.000000    
      8 Ti    c    0.965000 *  0.749000 *  0.501000 *   4.00000    1.000000    
      9 O1    c    0.910000 *  0.746000 *  0.250000 *   0.84819    1.000000    
     10 O1    c    0.410000 *  0.254000 *  0.750000 *   0.84819    1.000000    
     11 O2    c    0.172000 *  0.031000 *  0.027000 *   0.84819    1.000000    
     12 O2    c    0.672000 *  0.969000 *  0.973000 *   0.84819    1.000000    
     13 O2    c    0.672000 *  0.969000 *  0.527000 *   0.84819    1.000000    
     14 O2    c    0.172000 *  0.031000 *  0.473000 *   0.84819    1.000000    
     15 O3    c    0.006000 *  0.757000 *  0.750000 *   0.84819    1.000000    
     16 O3    c    0.506000 *  0.243000 *  0.250000 *   0.84819    1.000000    
     17 O4    c    0.719000 *  0.485000 *  0.976000 *   0.84819    1.000000    
     18 O4    c    0.219000 *  0.515000 *  0.024000 *   0.84819    1.000000    
     19 O4    c    0.219000 *  0.515000 *  0.476000 *   0.84819    1.000000    
     20 O4    c    0.719000 *  0.485000 *  0.524000 *   0.84819    1.000000    
     21 O1    s    0.910000 *  0.746000 *  0.250000 *  -2.84819    1.000000    
     22 O1    s    0.410000 *  0.254000 *  0.750000 *  -2.84819    1.000000    
     23 O2    s    0.172000 *  0.031000 *  0.027000 *  -2.84819    1.000000    
     24 O2    s    0.672000 *  0.969000 *  0.973000 *  -2.84819    1.000000    
     25 O2    s    0.672000 *  0.969000 *  0.527000 *  -2.84819    1.000000    
     26 O2    s    0.172000 *  0.031000 *  0.473000 *  -2.84819    1.000000    
     27 O3    s    0.006000 *  0.757000 *  0.750000 *  -2.84819    1.000000    
     28 O3    s    0.506000 *  0.243000 *  0.250000 *  -2.84819    1.000000    
     29 O4    s    0.719000 *  0.485000 *  0.976000 *  -2.84819    1.000000    
     30 O4    s    0.219000 *  0.515000 *  0.024000 *  -2.84819    1.000000    
     31 O4    s    0.219000 *  0.515000 *  0.476000 *  -2.84819    1.000000    
     32 O4    s    0.719000 *  0.485000 *  0.524000 *  -2.84819    1.000000    
--------------------------------------------------------------------------------


  PDF uses Gamma centred Brillouin zone with no symmetry reduction


********************************************************************************
*  Input for Configuration =   3 : Ca0.75Sr0.25TiO3                            *
********************************************************************************

  Formula = Ca3SrTi4O12                                                 

  Number of irreducible atoms/shells =      36


  Total number atoms/shells =      36

  Dimensionality = 3               :  Bulk   



  Cartesian lattice vectors (Angstroms) :

        5.470000    0.000000    0.000000
        0.000000    5.470000    0.000000
        0.000000    0.000000    7.730000

  Cell parameters (Angstroms/Degrees):

  a =       5.4700    alpha =  90.0000
  b =       5.4700    beta  =  90.0000
  c =       7.7300    gamma =  90.0000

  Initial cell volume =         231.288557 Angs**3

  Shrinking factors =      2     2     2

  Temperature of configuration =  0.000     K 

  Pressure of configuration =         0.000 GPa 

  Fractional coordinates of asymmetric unit :

--------------------------------------------------------------------------------
   No.  Atomic       x           y          z         Charge      Occupancy
        Label      (Frac)      (Frac)     (Frac)        (e)         (Frac)  
--------------------------------------------------------------------------------
      1 Ca    c    0.950000 *  0.263000 *  0.250000     2.00000    0.750000    
      2 Ca    c    0.450000 *  0.737000 *  0.750000 *   2.00000    0.750000    
      3 Sr    c    0.950000    0.263000    0.250000     2.00000    0.250000    
      4 Sr    c    0.450000    0.737000    0.750000     2.00000    0.250000    
      5 Ca    c    0.446000 *  0.760000 *  0.250000 *   2.00000    0.750000    
      6 Ca    c    0.946000 *  0.240000 *  0.750000 *   2.00000    0.750000    
      7 Sr    c    0.446000    0.760000    0.250000     2.00000    0.250000    
      8 Sr    c    0.946000    0.240000    0.750000     2.00000    0.250000    
      9 Ti    c    0.965000 *  0.749000 *  0.999000 *   4.00000    1.000000    
     10 Ti    c    0.465000 *  0.251000 *  0.001000 *   4.00000    1.000000    
     11 Ti    c    0.465000 *  0.251000 *  0.499000 *   4.00000    1.000000    
     12 Ti    c    0.965000 *  0.749000 *  0.501000 *   4.00000    1.000000    
     13 O1    c    0.910000 *  0.746000 *  0.250000 *   0.84819    1.000000    
     14 O1    c    0.410000 *  0.254000 *  0.750000 *   0.84819    1.000000    
     15 O2    c    0.172000 *  0.031000 *  0.027000 *   0.84819    1.000000    
     16 O2    c    0.672000 *  0.969000 *  0.973000 *   0.84819    1.000000    
     17 O2    c    0.672000 *  0.969000 *  0.527000 *   0.84819    1.000000    
     18 O2    c    0.172000 *  0.031000 *  0.473000 *   0.84819    1.000000    
     19 O3    c    0.006000 *  0.757000 *  0.750000 *   0.84819    1.000000    
     20 O3    c    0.506000 *  0.243000 *  0.250000 *   0.84819    1.000000    
     21 O4    c    0.719000 *  0.485000 *  0.976000 *   0.84819    1.000000    
     22 O4    c    0.219000 *  0.515000 *  0.024000 *   0.84819    1.000000    
     23 O4    c    0.219000 *  0.515000 *  0.476000 *   0.84819    1.000000    
     24 O4    c    0.719000 *  0.485000 *  0.524000 *   0.84819    1.000000    
     25 O1    s    0.910000 *  0.746000 *  0.250000 *  -2.84819    1.000000    
     26 O1    s    0.410000 *  0.254000 *  0.750000 *  -2.84819    1.000000    
     27 O2    s    0.172000 *  0.031000 *  0.027000 *  -2.84819    1.000000    
     28 O2    s    0.672000 *  0.969000 *  0.973000 *  -2.84819    1.000000    
     29 O2    s    0.672000 *  0.969000 *  0.527000 *  -2.84819    1.000000    
     30 O2    s    0.172000 *  0.031000 *  0.473000 *  -2.84819    1.000000    
     31 O3    s    0.006000 *  0.757000 *  0.750000 *  -2.84819    1.000000    
     32 O3    s    0.506000 *  0.243000 *  0.250000 *  -2.84819    1.000000    
     33 O4    s    0.719000 *  0.485000 *  0.976000 *  -2.84819    1.000000    
     34 O4    s    0.219000 *  0.515000 *  0.024000 *  -2.84819    1.000000    
     35 O4    s    0.219000 *  0.515000 *  0.476000 *  -2.84819    1.000000    
     36 O4    s    0.719000 *  0.485000 *  0.524000 *  -2.84819    1.000000    
--------------------------------------------------------------------------------


  Constraints : 

--------------------------------------------------------------------------------
  Constraint no.      Unconstrained     Constrained    Coefficient    Offset
                         Variable         Variable
--------------------------------------------------------------------------------
           1                 1 x             3 x         1.00000      0.0000
           2                 1 y             3 y         1.00000      0.0000
           3                 1 z             3 z         1.00000      0.0000
           4                 2 x             4 x         1.00000      0.0000
           5                 2 y             4 y         1.00000      0.0000
           6                 2 z             4 z         1.00000      0.0000
           7                 5 x             7 x         1.00000      0.0000
           8                 5 y             7 y         1.00000      0.0000
           9                 5 z             7 z         1.00000      0.0000
          10                 6 x             8 x         1.00000      0.0000
          11                 6 y             8 y         1.00000      0.0000
          12                 6 z             8 z         1.00000      0.0000
--------------------------------------------------------------------------------

  PDF uses Gamma centred Brillouin zone with no symmetry reduction


********************************************************************************
*  Input for Configuration =   4 : CaTiO3                                      *
********************************************************************************

  Formula = Ca4Ti4O12                                                   

  Number of irreducible atoms/shells =      32


  Total number atoms/shells =      32

  Dimensionality = 3               :  Bulk   



  Cartesian lattice vectors (Angstroms) :

        5.378500    0.000000    0.000000
        0.000000    5.441900    0.000000
        0.000000    0.000000    7.640000

  Cell parameters (Angstroms/Degrees):

  a =       5.3785    alpha =  90.0000
  b =       5.4419    beta  =  90.0000
  c =       7.6400    gamma =  90.0000

  Initial cell volume =         223.617140 Angs**3

  Shrinking factors =      2     2     2

  Temperature of configuration =  0.000     K 

  Pressure of configuration =         0.000 GPa 

  Fractional coordinates of asymmetric unit :

--------------------------------------------------------------------------------
   No.  Atomic       x           y          z         Charge      Occupancy
        Label      (Frac)      (Frac)     (Frac)        (e)         (Frac)  
--------------------------------------------------------------------------------
      1 Ca    c    0.993000    0.033000    0.250000     2.00000    1.000000    
      2 Ca    c    0.493000 *  0.467000 *  0.750000 *   2.00000    1.000000    
      3 Ca    c    0.507000 *  0.533000 *  0.250000 *   2.00000    1.000000    
      4 Ca    c    0.007000 *  0.967000 *  0.750000 *   2.00000    1.000000    
      5 Ti    c    0.000000 *  0.500000 *  0.000000 *   4.00000    1.000000    
      6 Ti    c    0.500000 *  0.000000 *  0.000000 *   4.00000    1.000000    
      7 Ti    c    0.500000 *  0.000000 *  0.500000 *   4.00000    1.000000    
      8 Ti    c    0.000000 *  0.500000 *  0.500000 *   4.00000    1.000000    
      9 O1    c    0.072000 *  0.489000 *  0.250000 *   0.84819    1.000000    
     10 O1    c    0.572000 *  0.011000 *  0.750000 *   0.84819    1.000000    
     11 O1    c    0.428000 *  0.989000 *  0.250000 *   0.84819    1.000000    
     12 O1    c    0.928000 *  0.511000 *  0.750000 *   0.84819    1.000000    
     13 O2    c    0.717000 *  0.284000 *  0.035000 *   0.84819    1.000000    
     14 O2    c    0.217000 *  0.216000 *  0.965000 *   0.84819    1.000000    
     15 O2    c    0.783000 *  0.784000 *  0.465000 *   0.84819    1.000000    
     16 O2    c    0.283000 *  0.716000 *  0.535000 *   0.84819    1.000000    
     17 O2    c    0.283000 *  0.716000 *  0.965000 *   0.84819    1.000000    
     18 O2    c    0.783000 *  0.784000 *  0.035000 *   0.84819    1.000000    
     19 O2    c    0.217000 *  0.216000 *  0.535000 *   0.84819    1.000000    
     20 O2    c    0.717000 *  0.284000 *  0.465000 *   0.84819    1.000000    
     21 O1    s    0.072000 *  0.489000 *  0.250000 *  -2.84819    1.000000    
     22 O1    s    0.572000 *  0.011000 *  0.750000 *  -2.84819    1.000000    
     23 O1    s    0.428000 *  0.989000 *  0.250000 *  -2.84819    1.000000    
     24 O1    s    0.928000 *  0.511000 *  0.750000 *  -2.84819    1.000000    
     25 O2    s    0.717000 *  0.284000 *  0.035000 *  -2.84819    1.000000    
     26 O2    s    0.217000 *  0.216000 *  0.965000 *  -2.84819    1.000000    
     27 O2    s    0.783000 *  0.784000 *  0.465000 *  -2.84819    1.000000    
     28 O2    s    0.283000 *  0.716000 *  0.535000 *  -2.84819    1.000000    
     29 O2    s    0.283000 *  0.716000 *  0.965000 *  -2.84819    1.000000    
     30 O2    s    0.783000 *  0.784000 *  0.035000 *  -2.84819    1.000000    
     31 O2    s    0.217000 *  0.216000 *  0.535000 *  -2.84819    1.000000    
     32 O2    s    0.717000 *  0.284000 *  0.465000 *  -2.84819    1.000000    
--------------------------------------------------------------------------------


  PDF uses Gamma centred Brillouin zone with no symmetry reduction


********************************************************************************
*  General input information                                                   *
********************************************************************************

  Species output for all configurations : 

--------------------------------------------------------------------------------
  Species    Type    Atomic    Atomic    Charge       Radii (Angs)     Library
                     Number     Mass       (e)     Cova   Ionic  VDW   Symbol
--------------------------------------------------------------------------------
    Sr       Core       38      87.62   2.000000   1.120  0.000  1.670          
    Ca       Core       20      40.08   2.000000   0.990  0.000  2.750          
    Ti       Core       22      47.88   4.000000   1.470  0.000  2.190          
    O        Core        8      16.00   0.848190   0.730  0.000  1.360          
    O        Shell       8       0.00  -2.848190   0.730  0.000  1.360          
--------------------------------------------------------------------------------


  Species output for PDF data: 

--------------------------------------------------------------------------------
  Species    Type       bbar     sigma_inc  sigma_coh     
                       (Angs)     (Angs^2)   (Angs^2)     
--------------------------------------------------------------------------------
    Sr       Core     0.7020E-04 0.5724E-09 0.6193E-07
    Ca       Core     0.4760E-04 0.4276E-09 0.2847E-07
    Ti       Core     -.3438E-04 0.2865E-07 0.1485E-07
    O        Core     0.5803E-04 0.2987E-11 0.4232E-07
    O        Shell    0.5803E-04 0.2987E-11 0.4232E-07
--------------------------------------------------------------------------------




********************************************************************************
*  PDF Input Settings                                                          *
********************************************************************************




!!!!!!!!!!!!!!!!!!!!!!!!!!!!!!!!!!!!!!!!!!!!!!!!!!!!!!!!!!!!!!!!!!!!!!!!!!!!!!!!
!! ADVICE  : 'pdf all' option acts on all configurations
!!!!!!!!!!!!!!!!!!!!!!!!!!!!!!!!!!!!!!!!!!!!!!!!!!!!!!!!!!!!!!!!!!!!!!!!!!!!!!!!

********************************************************************************
*  PDF parameters for each configuration 
*
*  Configuration   1
********************************************************************************
 Pair Distribution Function to be calculated up to  6.0000 A
 300 rbins to be used.
********************************************************************************
*  Configuration   2
********************************************************************************
 Pair Distribution Function to be calculated up to  6.0000 A
 300 rbins to be used.
********************************************************************************
*  Configuration   3
********************************************************************************
 Pair Distribution Function to be calculated up to  6.0000 A
 300 rbins to be used.
********************************************************************************
*  Configuration   4
********************************************************************************
 Pair Distribution Function to be calculated up to  6.0000 A
 300 rbins to be used.
********************************************************************************
  Lattice summation method               =    Ewald          (3-D)
                                         =    Parry          (2-D)
                                         =    Saunders et al (1-D)
  Accuracy factor for lattice sums       =   12.000


  Time limit = Infinity

  Maximum range for interatomic potentials =    100000.000000 Angstroms

  C6 terms to be calculated in real/reciprocal space by one-centre decomposition

  General interatomic potentials :

--------------------------------------------------------------------------------
Atom  Types   Potential         A         B         C         D     Cutoffs(Ang)
  1     2                                                            Min    Max 
--------------------------------------------------------------------------------
Sr   c O    s Buckingham    0.133E+05 0.240      0.00      0.00     0.000 10.000
Ti   c O    s Buckingham    0.253E+04 0.289      0.00      0.00     0.000 10.000
O    s O    s Buckingham    0.482E+06 0.149      27.9      0.00     0.000 10.000
Ca   c O    s Buckingham    0.227E+04 0.299      0.00      0.00     0.000 10.000
O    c O    s Spring (c-s)   58.2      0.00      0.00      0.00     0.000  0.800
--------------------------------------------------------------------------------

********************************************************************************
*  Output for configuration   1 : Ca0.25Sr0.75TiO3                             *
********************************************************************************


  Components of energy : 

--------------------------------------------------------------------------------
  Interatomic potentials     =          81.33507677 eV
  Monopole - monopole (real) =        -333.31948584 eV
  Monopole - monopole (recip)=        -400.64827490 eV
  Monopole - monopole (total)=        -733.96776074 eV
  Dispersion (real+recip)    =          -3.87599781 eV
--------------------------------------------------------------------------------
  Total lattice energy       =        -656.50868178 eV
--------------------------------------------------------------------------------
  Total lattice energy       =          -63343.0521 kJ/(mole unit cells)
--------------------------------------------------------------------------------


  Number of variables =       95

  Maximum number of calculations  =          1000
  Maximum Hessian update interval =            10
  Maximum step size               =   1.000000000
  Maximum parameter tolerance     =   0.000010000
  Maximum function  tolerance     =   0.000010000
  Maximum gradient  tolerance     =   0.001000000
  Maximum gradient  component     =   0.010000000

  Newton-Raphson optimiser to be used

  BFGS hessian update to be used

  Start of bulk optimisation :

  Cycle:      0 Energy:      -656.508682  Gnorm:      0.738605  CPU:    0.024
  ** Hessian calculated **
  Cycle:      1 Energy:      -656.832584  Gnorm:      0.702538  CPU:    0.045
  ** Hessian calculated **
  Cycle:      2 Energy:      -657.480711  Gnorm:      0.400599  CPU:    0.076
  Cycle:      3 Energy:      -657.702455  Gnorm:      0.174263  CPU:    0.090
  Cycle:      4 Energy:      -657.740918  Gnorm:      0.188735  CPU:    0.105
  Cycle:      5 Energy:      -657.749930  Gnorm:      0.183288  CPU:    0.120
  ** Hessian calculated **
  Cycle:      6 Energy:      -657.790840  Gnorm:      0.127309  CPU:    0.150
  Cycle:      7 Energy:      -657.806515  Gnorm:      0.087826  CPU:    0.168
  ** Hessian calculated **
  Cycle:      8 Energy:      -657.815688  Gnorm:      0.034732  CPU:    0.199
  Cycle:      9 Energy:      -657.817195  Gnorm:      0.018045  CPU:    0.214
  Cycle:     10 Energy:      -657.818209  Gnorm:      0.016915  CPU:    0.229
  Cycle:     11 Energy:      -657.818624  Gnorm:      0.010097  CPU:    0.243
  Cycle:     12 Energy:      -657.818787  Gnorm:      0.007653  CPU:    0.258
  Cycle:     13 Energy:      -657.818947  Gnorm:      0.006290  CPU:    0.273
  Cycle:     14 Energy:      -657.819077  Gnorm:      0.004081  CPU:    0.287
  Cycle:     15 Energy:      -657.819115  Gnorm:      0.004374  CPU:    0.302
  Cycle:     16 Energy:      -657.819200  Gnorm:      0.006103  CPU:    0.320
  Cycle:     17 Energy:      -657.819330  Gnorm:      0.007211  CPU:    0.339
  ** Hessian calculated **
  Cycle:     18 Energy:      -657.819396  Gnorm:      0.005279  CPU:    0.369
  Cycle:     19 Energy:      -657.819455  Gnorm:      0.003893  CPU:    0.384
  Cycle:     20 Energy:      -657.819484  Gnorm:      0.003091  CPU:    0.398
  Cycle:     21 Energy:      -657.819529  Gnorm:      0.004696  CPU:    0.417
  Cycle:     22 Energy:      -657.819624  Gnorm:      0.005842  CPU:    0.439
  Cycle:     23 Energy:      -657.819723  Gnorm:      0.006516  CPU:    0.458
  Cycle:     24 Energy:      -657.819828  Gnorm:      0.008181  CPU:    0.473
  Cycle:     25 Energy:      -657.820028  Gnorm:      0.009236  CPU:    0.491
  Cycle:     26 Energy:      -657.820178  Gnorm:      0.007466  CPU:    0.507
  Cycle:     27 Energy:      -657.820399  Gnorm:      0.008121  CPU:    0.525
  ** Hessian calculated **
  Cycle:     28 Energy:      -657.820499  Gnorm:      0.004869  CPU:    0.560
  Cycle:     29 Energy:      -657.820555  Gnorm:      0.005145  CPU:    0.575
  Cycle:     30 Energy:      -657.820610  Gnorm:      0.003950  CPU:    0.590
  Cycle:     31 Energy:      -657.820636  Gnorm:      0.003725  CPU:    0.605
  Cycle:     32 Energy:      -657.820664  Gnorm:      0.002986  CPU:    0.620
  Cycle:     33 Energy:      -657.820687  Gnorm:      0.002674  CPU:    0.636
  Cycle:     34 Energy:      -657.820703  Gnorm:      0.001514  CPU:    0.651
  Cycle:     35 Energy:      -657.820710  Gnorm:      0.001869  CPU:    0.666
  Cycle:     36 Energy:      -657.820719  Gnorm:      0.001827  CPU:    0.681
  Cycle:     37 Energy:      -657.820727  Gnorm:      0.001840  CPU:    0.697
  ** Hessian calculated **
  Cycle:     38 Energy:      -657.820732  Gnorm:      0.001551  CPU:    0.728
  Cycle:     39 Energy:      -657.820737  Gnorm:      0.001470  CPU:    0.743
  Cycle:     40 Energy:      -657.820742  Gnorm:      0.001311  CPU:    0.759
  Cycle:     41 Energy:      -657.820748  Gnorm:      0.001555  CPU:    0.774
  Cycle:     42 Energy:      -657.820758  Gnorm:      0.001259  CPU:    0.789
  Cycle:     43 Energy:      -657.820770  Gnorm:      0.001290  CPU:    0.804
  Cycle:     44 Energy:      -657.820782  Gnorm:      0.001659  CPU:    0.819
  Cycle:     45 Energy:      -657.820793  Gnorm:      0.002203  CPU:    0.834
  Cycle:     46 Energy:      -657.820806  Gnorm:      0.003015  CPU:    0.849
  Cycle:     47 Energy:      -657.820821  Gnorm:      0.002264  CPU:    0.864
  ** Hessian calculated **
  Cycle:     48 Energy:      -657.820828  Gnorm:      0.001866  CPU:    0.895
  Cycle:     49 Energy:      -657.820839  Gnorm:      0.002029  CPU:    0.910
  Cycle:     50 Energy:      -657.820846  Gnorm:      0.001264  CPU:    0.924
  Cycle:     51 Energy:      -657.820849  Gnorm:      0.001280  CPU:    0.939
  Cycle:     52 Energy:      -657.820855  Gnorm:      0.001351  CPU:    0.954
  Cycle:     53 Energy:      -657.820859  Gnorm:      0.000811  CPU:    0.969
  Cycle:     54 Energy:      -657.820861  Gnorm:      0.000722  CPU:    0.985
  Cycle:     55 Energy:      -657.820863  Gnorm:      0.000750  CPU:    1.001
  Cycle:     56 Energy:      -657.820865  Gnorm:      0.001106  CPU:    1.016
  Cycle:     57 Energy:      -657.820868  Gnorm:      0.000932  CPU:    1.031
  ** Hessian calculated **
  Cycle:     58 Energy:      -657.820870  Gnorm:      0.000925  CPU:    1.061
  Cycle:     59 Energy:      -657.820871  Gnorm:      0.000692  CPU:    1.076
  Cycle:     60 Energy:      -657.820872  Gnorm:      0.000616  CPU:    1.091
  Cycle:     61 Energy:      -657.820873  Gnorm:      0.000821  CPU:    1.105
  Cycle:     62 Energy:      -657.820875  Gnorm:      0.000631  CPU:    1.120
  Cycle:     63 Energy:      -657.820878  Gnorm:      0.000620  CPU:    1.135
  Cycle:     64 Energy:      -657.820881  Gnorm:      0.000910  CPU:    1.149
  Cycle:     65 Energy:      -657.820885  Gnorm:      0.001103  CPU:    1.164
  Cycle:     66 Energy:      -657.820889  Gnorm:      0.001330  CPU:    1.179
  Cycle:     67 Energy:      -657.820892  Gnorm:      0.001192  CPU:    1.193
  ** Hessian calculated **
  Cycle:     68 Energy:      -657.820893  Gnorm:      0.000846  CPU:    1.224
  Cycle:     69 Energy:      -657.820896  Gnorm:      0.000934  CPU:    1.238
  Cycle:     70 Energy:      -657.820899  Gnorm:      0.000693  CPU:    1.253
  Cycle:     71 Energy:      -657.820900  Gnorm:      0.000658  CPU:    1.268
  Cycle:     72 Energy:      -657.820902  Gnorm:      0.000452  CPU:    1.282
  Cycle:     73 Energy:      -657.820902  Gnorm:      0.000459  CPU:    1.297


  **** Optimisation achieved ****


  Final energy =    -657.82090263 eV
  Final Gnorm  =       0.00029192

  Components of energy : 

--------------------------------------------------------------------------------
  Interatomic potentials     =          83.64259665 eV
  Monopole - monopole (real) =        -155.22477959 eV
  Monopole - monopole (recip)=        -582.24168554 eV
  Monopole - monopole (total)=        -737.46646513 eV
  Dispersion (real+recip)    =          -3.99703415 eV
--------------------------------------------------------------------------------
  Total lattice energy       =        -657.82090263 eV
--------------------------------------------------------------------------------
  Total lattice energy       =          -63469.6614 kJ/(mole unit cells)
--------------------------------------------------------------------------------

  Final fractional coordinates of atoms :

--------------------------------------------------------------------------------
   No.  Atomic        x           y          z          Radius
        Label       (Frac)      (Frac)     (Frac)       (Angs) 
--------------------------------------------------------------------------------
     1  Ca    c     0.897057    0.224744    0.250000    0.000000
     2  Ca    c     0.397063    0.724737    0.749988    0.000000
     3  Sr    c     0.897057    0.224744    0.250000    0.000000
     4  Sr    c     0.397063    0.724737    0.749988    0.000000
     5  Ca    c     0.397045    0.724745    0.249983    0.000000
     6  Ca    c     0.897043    0.224743    0.749989    0.000000
     7  Sr    c     0.397045    0.724745    0.249983    0.000000
     8  Sr    c     0.897043    0.224743    0.749989    0.000000
     9  Ti    c     0.897027    0.724743    0.999982    0.000000
    10  Ti    c     0.397028    0.224742    0.999982    0.000000
    11  Ti    c     0.397029    0.224736    0.499982    0.000000
    12  Ti    c     0.897028    0.724737    0.499982    0.000000
    13  O1    c     0.896613    0.724726    0.249982    0.000000
    14  O1    c     0.396611    0.224726    0.749981    0.000000
    15  O2    c     0.146938    0.974835    0.000190    0.000000
    16  O2    c     0.646942    0.974655    0.999783    0.000000
    17  O2    c     0.646894    0.974620    0.500175    0.000000
    18  O2    c     0.146898    0.974854    0.499767    0.000000
    19  O3    c     0.897423    0.724757    0.749980    0.000000
    20  O3    c     0.397423    0.224756    0.249980    0.000000
    21  O4    c     0.647121    0.474657    0.999767    0.000000
    22  O4    c     0.147131    0.474836    0.000174    0.000000
    23  O4    c     0.147130    0.474831    0.499783    0.000000
    24  O4    c     0.647131    0.474635    0.500190    0.000000
    25  O1    s     0.896639    0.724726    0.249982    0.000000
    26  O1    s     0.396640    0.224727    0.749981    0.000000
    27  O2    s     0.146945    0.974829    0.000175    0.000000
    28  O2    s     0.646947    0.974660    0.999795    0.000000
    29  O2    s     0.646899    0.974633    0.500162    0.000000
    30  O2    s     0.146904    0.974841    0.499781    0.000000
    31  O3    s     0.897397    0.724755    0.749979    0.000000
    32  O3    s     0.397396    0.224754    0.249980    0.000000
    33  O4    s     0.647117    0.474665    0.999781    0.000000
    34  O4    s     0.147125    0.474828    0.000161    0.000000
    35  O4    s     0.147122    0.474824    0.499796    0.000000
    36  O4    s     0.647125    0.474641    0.500176    0.000000
--------------------------------------------------------------------------------

  Final internal derivatives :

--------------------------------------------------------------------------------
   No.  Atomic          a             b             c           Radius
        Label          (eV)          (eV)          (eV)        (eV/Angs)
--------------------------------------------------------------------------------
      1 Ca    c       0.002119      0.000316      0.000000      0.000000
      2 Ca    c       0.003766     -0.000026     -0.000581      0.000000
      3 Sr    c       0.000000      0.000000      0.000000      0.000000
      4 Sr    c       0.000000      0.000000      0.000000      0.000000
      5 Ca    c       0.000005      0.000658      0.000279      0.000000
      6 Ca    c      -0.000862      0.000394     -0.000563      0.000000
      7 Sr    c       0.000000      0.000000      0.000000      0.000000
      8 Sr    c       0.000000      0.000000      0.000000      0.000000
      9 Ti    c      -0.004795      0.000519      0.004823      0.000000
     10 Ti    c      -0.002366     -0.000113      0.004491      0.000000
     11 Ti    c       0.003796     -0.001089     -0.002748      0.000000
     12 Ti    c       0.000558     -0.000477     -0.003149      0.000000
     13 O1    c      -0.001457      0.000794      0.000280      0.000000
     14 O1    c      -0.005334      0.000261     -0.001132      0.000000
     15 O2    c      -0.002003      0.000862      0.007528      0.000000
     16 O2    c      -0.000968     -0.000823     -0.003429      0.000000
     17 O2    c      -0.002594     -0.002058      0.004315      0.000000
     18 O2    c      -0.004025      0.002350     -0.006606      0.000000
     19 O3    c       0.002165      0.001202     -0.001998      0.000000
     20 O3    c       0.003302      0.000975     -0.000725      0.000000
     21 O4    c      -0.000287     -0.001256     -0.003308      0.000000
     22 O4    c       0.002640      0.000233      0.007401      0.000000
     23 O4    c       0.003642     -0.000561     -0.006502      0.000000
     24 O4    c       0.001244      0.000138      0.004167      0.000000
     25 O1    s      -0.007127     -0.000568     -0.000378      0.000000
     26 O1    s      -0.003645     -0.000241      0.001674      0.000000
     27 O2    s       0.001655      0.002555     -0.005095      0.000000
     28 O2    s       0.000684     -0.000828     -0.003647      0.000000
     29 O2    s      -0.004075      0.001886      0.001357      0.000000
     30 O2    s       0.000385     -0.000415      0.002647      0.000000
     31 O3    s       0.004846     -0.000573      0.001971      0.000000
     32 O3    s       0.001984     -0.000194     -0.000227      0.000000
     33 O4    s       0.002435      0.001120     -0.004128      0.000000
     34 O4    s       0.003746     -0.001967     -0.005268      0.000000
     35 O4    s       0.000920     -0.002710      0.002871      0.000000
     36 O4    s      -0.000354     -0.000366      0.001899      0.000000
--------------------------------------------------------------------------------
  Maximum abs         0.007127      0.002710      0.007528      0.000000
--------------------------------------------------------------------------------


  Born effective charge tensors : 

-------------------------------------------------------------------------------
  Atom             x           y             z
-------------------------------------------------------------------------------
   1 Ca    x       0.5862     -0.0000     -0.0000
           y      -0.0000      0.5862      0.0000
           z       0.0000      0.0000      0.5862
-------------------------------------------------------------------------------
   2 Ca    x       0.5862      0.0000      0.0000
           y       0.0000      0.5862     -0.0000
           z      -0.0000     -0.0000      0.5862
-------------------------------------------------------------------------------
   3 Sr    x       1.7479     -0.0000     -0.0000
           y      -0.0000      1.7479      0.0000
           z      -0.0000      0.0000      1.7477
-------------------------------------------------------------------------------
   4 Sr    x       1.7479      0.0000      0.0000
           y       0.0000      1.7479     -0.0000
           z       0.0000      0.0000      1.7477
-------------------------------------------------------------------------------
   5 Ca    x       0.5862      0.0000     -0.0000
           y       0.0000      0.5862      0.0000
           z       0.0000      0.0000      0.5862
-------------------------------------------------------------------------------
   6 Ca    x       0.5862     -0.0000      0.0000
           y      -0.0000      0.5862     -0.0000
           z      -0.0000     -0.0000      0.5862
-------------------------------------------------------------------------------
   7 Sr    x       1.7479      0.0000     -0.0000
           y       0.0000      1.7479      0.0000
           z      -0.0000     -0.0000      1.7477
-------------------------------------------------------------------------------
   8 Sr    x       1.7479     -0.0000      0.0000
           y      -0.0000      1.7479     -0.0000
           z       0.0000      0.0000      1.7477
-------------------------------------------------------------------------------
   9 Ti    x       3.6767      0.0003      0.0014
           y      -0.0005      3.6766      0.0001
           z      -0.0014     -0.0000      3.6655
-------------------------------------------------------------------------------
  10 Ti    x       3.6766     -0.0003     -0.0014
           y       0.0005      3.6766     -0.0001
           z       0.0014      0.0000      3.6654
-------------------------------------------------------------------------------
  11 Ti    x       3.6766     -0.0001      0.0014
           y       0.0008      3.6765      0.0001
           z      -0.0014     -0.0000      3.6654
-------------------------------------------------------------------------------
  12 Ti    x       3.6767      0.0001     -0.0014
           y      -0.0008      3.6768     -0.0001
           z       0.0014      0.0000      3.6653
-------------------------------------------------------------------------------
  13 O1    x      -1.6652     -0.0001     -0.0000
           y       0.0001     -1.6652      0.0000
           z       0.0000      0.0000     -2.6699
-------------------------------------------------------------------------------
  14 O1    x      -1.6652      0.0001      0.0000
           y      -0.0001     -1.6653     -0.0000
           z      -0.0000     -0.0000     -2.6700
-------------------------------------------------------------------------------
  15 O2    x      -2.1728     -0.5068     -0.0000
           y      -0.5068     -2.1728      0.0000
           z      -0.0000      0.0000     -1.6646
-------------------------------------------------------------------------------
  16 O2    x      -2.1727      0.5068      0.0000
           y       0.5068     -2.1728      0.0000
           z       0.0000      0.0000     -1.6646
-------------------------------------------------------------------------------
  17 O2    x      -2.1727      0.5068     -0.0000
           y       0.5068     -2.1727      0.0000
           z      -0.0000      0.0000     -1.6646
-------------------------------------------------------------------------------
  18 O2    x      -2.1728     -0.5068     -0.0000
           y      -0.5068     -2.1728     -0.0000
           z      -0.0000      0.0000     -1.6646
-------------------------------------------------------------------------------
  19 O3    x      -1.6652     -0.0001      0.0000
           y       0.0001     -1.6652     -0.0000
           z      -0.0000     -0.0000     -2.6700
-------------------------------------------------------------------------------
  20 O3    x      -1.6652      0.0001     -0.0000
           y      -0.0001     -1.6652      0.0000
           z       0.0000      0.0000     -2.6699
-------------------------------------------------------------------------------
  21 O4    x      -2.1728     -0.5068      0.0000
           y      -0.5068     -2.1728     -0.0000
           z       0.0000     -0.0000     -1.6646
-------------------------------------------------------------------------------
  22 O4    x      -2.1728      0.5068      0.0000
           y       0.5068     -2.1728     -0.0000
           z       0.0000     -0.0000     -1.6646
-------------------------------------------------------------------------------
  23 O4    x      -2.1728      0.5068     -0.0000
           y       0.5068     -2.1728      0.0000
           z      -0.0000     -0.0000     -1.6646
-------------------------------------------------------------------------------
  24 O4    x      -2.1727     -0.5068      0.0000
           y      -0.5068     -2.1728     -0.0000
           z       0.0000     -0.0000     -1.6646
-------------------------------------------------------------------------------




  Elastic Constant Matrix: (Units=GPa)

-------------------------------------------------------------------------------
  Indices      1         2         3         4         5         6    
-------------------------------------------------------------------------------
       1    446.7251   89.3378  140.3343   -0.0000    0.0000   -0.0001
       2     89.3378  446.7247  140.3342   -0.0000   -0.0000   -0.0001
       3    140.3343  140.3342  397.7683   -0.0000   -0.0000   -0.0001
       4     -0.0000   -0.0000   -0.0000  178.4820   -0.0000    0.0000
       5      0.0000   -0.0000   -0.0000   -0.0000  178.4817   -0.0000
       6     -0.0001   -0.0001   -0.0001    0.0000   -0.0000  127.5805
-------------------------------------------------------------------------------


  Elastic Compliance Matrix: (Units=1/GPa)

-------------------------------------------------------------------------------
  Indices      1         2         3         4         5         6    
-------------------------------------------------------------------------------
       1    0.002543 -0.000255 -0.000807  0.000000 -0.000000  0.000000
       2   -0.000255  0.002543 -0.000807  0.000000  0.000000  0.000000
       3   -0.000807 -0.000807  0.003084  0.000000  0.000000  0.000000
       4    0.000000  0.000000  0.000000  0.005603  0.000000 -0.000000
       5   -0.000000  0.000000  0.000000  0.000000  0.005603  0.000000
       6    0.000000  0.000000  0.000000 -0.000000  0.000000  0.007838
-------------------------------------------------------------------------------

  Mechanical properties :

-------------------------------------------------------------------------------
  Convention :                    Reuss         Voigt         Hill
-------------------------------------------------------------------------------
  Bulk  Modulus (GPa)     =     225.69109     225.69229     225.69169
  Shear Modulus (GPa)     =     154.18023     158.32296     156.25159
-------------------------------------------------------------------------------
  Velocity S-wave (km/s)  =       5.59314       5.66779       5.63059
  Velocity P-wave (km/s)  =       9.35435       9.41407       9.38426
-------------------------------------------------------------------------------
  Compressibility (1/GPa) =    0.00443084
-------------------------------------------------------------------------------
  Stress axis :                     x             y             z
-------------------------------------------------------------------------------
  Youngs Moduli (GPa)     =     393.22128     393.22093     324.29296
-------------------------------------------------------------------------------
  Poissons Ratio (x)      =                     0.10027       0.26179
  Poissons Ratio (y)      =       0.10027                     0.26179
  Poissons Ratio (z)      =       0.31743       0.31743
-------------------------------------------------------------------------------


  Piezoelectric Strain Matrix: (Units=C/m**2)

-------------------------------------------------------------------------------
  Indices      1         2         3         4         5         6    
-------------------------------------------------------------------------------
       x     0.05113   0.00780   0.02257  -0.00000   0.00990  -0.00022
       y     0.00067   0.00298   0.00208   0.00991  -0.00000   0.00709
       z     0.01046   0.01046   0.02161   0.00117   0.02152  -0.00001
-------------------------------------------------------------------------------


  Piezoelectric Stress Matrix: (Units=10**-11 C/N)

-------------------------------------------------------------------------------
  Indices      1         2         3         4         5         6    
-------------------------------------------------------------------------------
       x     0.01098  -0.00114   0.00220  -0.00000   0.00555  -0.00018
       y    -0.00007   0.00057   0.00035   0.00555  -0.00000   0.00556
       z     0.00065   0.00065   0.00498   0.00065   0.01206  -0.00001
-------------------------------------------------------------------------------


  Static dielectric constant tensor : 

-------------------------------------------------------------------------------
              x         y         z
-------------------------------------------------------------------------------
       x    23.48501   0.00005  -0.00005
       y     0.00005  23.48689   0.00008
       z    -0.00005   0.00008  23.20110
--------------------------------------------------------------------------------

  High frequency dielectric constant tensor : 

-------------------------------------------------------------------------------
              x         y         z
-------------------------------------------------------------------------------
       x     2.52685   0.00000  -0.00000
       y     0.00000   2.52685   0.00000
       z    -0.00000   0.00000   2.52476
-------------------------------------------------------------------------------

  Static refractive indices : 

-------------------------------------------------------------------------------
    1 =    4.81675      2 =    4.84613      3 =    4.84633
-------------------------------------------------------------------------------

  High frequency refractive indices : 

-------------------------------------------------------------------------------
    1 =    1.58895      2 =    1.58961      3 =    1.58961
-------------------------------------------------------------------------------


  Phonon Calculation : 

  Number of k points for this configuration =        8

--------------------------------------------------------------------------------
 (Core) Atomic information:
--------------------------------------------------------------------------------
Atom  1(CaSr):
  Mass     =  0.1258E-24 kg
  bbar     =  0.6455E-04 Ang
  sigma_inc     =  0.5362E-09 Ang^2
  Sigma_coh     =  0.5236E-07 Ang^2
  Cartesian  position =   4.90690345    1.22934789    1.93250000  Ang
  Fractional position =   0.89705730    0.22474367    0.25000000
Atom  2(CaSr):
  Mass     =  0.1258E-24 kg
  bbar     =  0.6455E-04 Ang
  sigma_inc     =  0.5362E-09 Ang^2
  Sigma_coh     =  0.5236E-07 Ang^2
  Cartesian  position =   2.17193306    3.96431347    5.79740530  Ang
  Fractional position =   0.39706272    0.72473738    0.74998775
Atom  3(CaSr):
  Mass     =  0.1258E-24 kg
  bbar     =  0.6455E-04 Ang
  sigma_inc     =  0.5362E-09 Ang^2
  Sigma_coh     =  0.5236E-07 Ang^2
  Cartesian  position =   2.17183734    3.96435471    1.93236627  Ang
  Fractional position =   0.39704522    0.72474492    0.24998270
Atom  4(CaSr):
  Mass     =  0.1258E-24 kg
  bbar     =  0.6455E-04 Ang
  sigma_inc     =  0.5362E-09 Ang^2
  Sigma_coh     =  0.5236E-07 Ang^2
  Cartesian  position =   4.90682525    1.22934360    5.79741179  Ang
  Fractional position =   0.89704301    0.22474289    0.74998859
Atom  5(Ti):
  Mass     =  0.7951E-25 kg
  bbar     = -0.3438E-04 Ang
  sigma_inc     =  0.2865E-07 Ang^2
  Sigma_coh     =  0.1485E-07 Ang^2
  Cartesian  position =   4.90673904    3.96434655    7.72986463  Ang
  Fractional position =   0.89702725    0.72474343    0.99998249
Atom  6(Ti):
  Mass     =  0.7951E-25 kg
  bbar     = -0.3438E-04 Ang
  sigma_inc     =  0.2865E-07 Ang^2
  Sigma_coh     =  0.1485E-07 Ang^2
  Cartesian  position =   2.17174147    1.22934095    7.72986377  Ang
  Fractional position =   0.39702769    0.22474240    0.99998238
Atom  7(Ti):
  Mass     =  0.7951E-25 kg
  bbar     = -0.3438E-04 Ang
  sigma_inc     =  0.2865E-07 Ang^2
  Sigma_coh     =  0.1485E-07 Ang^2
  Cartesian  position =   2.17174760    1.22930351    3.86485904  Ang
  Fractional position =   0.39702881    0.22473556    0.49998176
Atom  8(Ti):
  Mass     =  0.7951E-25 kg
  bbar     = -0.3438E-04 Ang
  sigma_inc     =  0.2865E-07 Ang^2
  Sigma_coh     =  0.1485E-07 Ang^2
  Cartesian  position =   4.90674236    3.96430906    3.86485812  Ang
  Fractional position =   0.89702785    0.72473657    0.49998165
Atom  9(O1):
  Mass     =  0.2657E-25 kg
  bbar     =  0.5803E-04 Ang
  sigma_inc     =  0.2987E-11 Ang^2
  Sigma_coh     =  0.4232E-07 Ang^2
  Cartesian  position =   4.90447450    3.96425316    1.93236023  Ang
  Fractional position =   0.89661325    0.72472635    0.24998192
Atom 10(O1):
  Mass     =  0.2657E-25 kg
  bbar     =  0.5803E-04 Ang
  sigma_inc     =  0.2987E-11 Ang^2
  Sigma_coh     =  0.4232E-07 Ang^2
  Cartesian  position =   2.16946270    1.22925363    5.79735378  Ang
  Fractional position =   0.39661110    0.22472644    0.74998108
Atom 11(O2):
  Mass     =  0.2657E-25 kg
  bbar     =  0.5803E-04 Ang
  sigma_inc     =  0.2987E-11 Ang^2
  Sigma_coh     =  0.4232E-07 Ang^2
  Cartesian  position =   0.80374977    5.33234554    0.00146677  Ang
  Fractional position =   0.14693780    0.97483465    0.00018975
Atom 12(O2):
  Mass     =  0.2657E-25 kg
  bbar     =  0.5803E-04 Ang
  sigma_inc     =  0.2987E-11 Ang^2
  Sigma_coh     =  0.4232E-07 Ang^2
  Cartesian  position =   3.53877158    5.33136480    7.72832138  Ang
  Fractional position =   0.64694179    0.97465536    0.99978284
Atom 13(O2):
  Mass     =  0.2657E-25 kg
  bbar     =  0.5803E-04 Ang
  sigma_inc     =  0.2987E-11 Ang^2
  Sigma_coh     =  0.4232E-07 Ang^2
  Cartesian  position =   3.53851014    5.33116876    3.86634902  Ang
  Fractional position =   0.64689399    0.97461952    0.50017452
Atom 14(O2):
  Mass     =  0.2657E-25 kg
  bbar     =  0.5803E-04 Ang
  sigma_inc     =  0.2987E-11 Ang^2
  Sigma_coh     =  0.4232E-07 Ang^2
  Cartesian  position =   0.80353027    5.33244914    3.86320194  Ang
  Fractional position =   0.14689767    0.97485359    0.49976739
Atom 15(O3):
  Mass     =  0.2657E-25 kg
  bbar     =  0.5803E-04 Ang
  sigma_inc     =  0.2987E-11 Ang^2
  Sigma_coh     =  0.4232E-07 Ang^2
  Cartesian  position =   4.90890649    3.96442155    5.79734382  Ang
  Fractional position =   0.89742349    0.72475714    0.74997979
Atom 16(O3):
  Mass     =  0.2657E-25 kg
  bbar     =  0.5803E-04 Ang
  sigma_inc     =  0.2987E-11 Ang^2
  Sigma_coh     =  0.4232E-07 Ang^2
  Cartesian  position =   2.17390484    1.22941628    1.93234900  Ang
  Fractional position =   0.39742319    0.22475618    0.24998047
Atom 17(O4):
  Mass     =  0.2657E-25 kg
  bbar     =  0.5803E-04 Ang
  sigma_inc     =  0.2987E-11 Ang^2
  Sigma_coh     =  0.4232E-07 Ang^2
  Cartesian  position =   3.53974938    2.59637219    7.72820269  Ang
  Fractional position =   0.64712055    0.47465671    0.99976749
Atom 18(O4):
  Mass     =  0.2657E-25 kg
  bbar     =  0.5803E-04 Ang
  sigma_inc     =  0.2987E-11 Ang^2
  Sigma_coh     =  0.4232E-07 Ang^2
  Cartesian  position =   0.80480850    2.59735442    0.00134780  Ang
  Fractional position =   0.14713135    0.47483627    0.00017436
Atom 19(O4):
  Mass     =  0.2657E-25 kg
  bbar     =  0.5803E-04 Ang
  sigma_inc     =  0.2987E-11 Ang^2
  Sigma_coh     =  0.4232E-07 Ang^2
  Cartesian  position =   0.80479975    2.59732447    3.86332116  Ang
  Fractional position =   0.14712975    0.47483080    0.49978282
Atom 20(O4):
  Mass     =  0.2657E-25 kg
  bbar     =  0.5803E-04 Ang
  sigma_inc     =  0.2987E-11 Ang^2
  Sigma_coh     =  0.4232E-07 Ang^2
  Cartesian  position =   3.53980847    2.59625216    3.86646825  Ang
  Fractional position =   0.64713135    0.47463476    0.50018994
--------------------------------------------------------------------------------
  Start of PDF calculation
--------------------------------------------------------------------------------

  PDF information:

  Maximum radius        =  6.000 Ang
  Number density        =  0.086 Ang(^-3)
  (Sum{c_i bbar_i} )^2  =  0.1669E-08

  Using primitive cell parameters   5.4700   5.4700   7.7300
  Testing primitive vectors with x,y,z=-(n+1) to n, n=    2
[width output suppressed by keyword nowidth]
  PDF statistics:

  Maximum width^2  was  0.2437E-01 Ang^2
  Number of pairs      1480
  Angular frequency range used:
   0.163315E+14 to  0.153887E+15 rad/s 
   0.259924E+01 to  0.244919E+02 THz   

  PDF output being written to example46_Cap25Srp75TiO3.pdfs
--------------------------------------------------------------------------------
  End of PDF calculation
--------------------------------------------------------------------------------

--------------------------------------------------------------------------------
  Phonon properties (per mole of unit cells): Temperature =      0.000 K
--------------------------------------------------------------------------------
  Zero point energy            =        1.358636 eV
--------------------------------------------------------------------------------

  Phonon density of states : 

--------------------------------------------------------------------------------
 Frequency (cm-1) Density of States                                             
--------------------------------------------------------------------------------
    0.00000 |                                                              0.000
   12.76500 |                                                              0.000
   25.53001 |                                                              0.000
   38.29501 |                                                              0.000
   51.06002 |                                                              0.000
   63.82502 |                                                              0.000
   76.59003 |************                                                  0.017
   89.35503 |************************************************************  0.083
  102.12004 |************************************                          0.050
  114.88504 |************************                                      0.033
  127.65005 |************                                                  0.017
  140.41505 |************                                                  0.017
  153.18006 |************************                                      0.033
  165.94506 |                                                              0.000
  178.71007 |************************************************              0.067
  191.47507 |************                                                  0.017
  204.24008 |                                                              0.000
  217.00508 |                                                              0.000
  229.77009 |************                                                  0.017
  242.53509 |************************************                          0.050
  255.30010 |************                                                  0.017
  268.06510 |                                                              0.000
  280.83011 |************************************                          0.050
  293.59511 |                                                              0.000
  306.36012 |************                                                  0.017
  319.12512 |************                                                  0.017
  331.89013 |                                                              0.000
  344.65513 |                                                              0.000
  357.42014 |************                                                  0.017
  370.18514 |************************                                      0.033
  382.95015 |************************                                      0.033
  395.71515 |************************                                      0.033
  408.48016 |************                                                  0.017
  421.24516 |                                                              0.000
  434.01017 |************************                                      0.033
  446.77517 |************                                                  0.017
  459.54018 |                                                              0.000
  472.30518 |                                                              0.000
  485.07019 |************                                                  0.017
  497.83519 |************                                                  0.017
  510.60020 |                                                              0.000
  523.36520 |************                                                  0.017
  536.13021 |************                                                  0.017
  548.89521 |************                                                  0.017
  561.66022 |                                                              0.000
  574.42522 |************************************                          0.050
  587.19023 |************************                                      0.033
  599.95523 |************                                                  0.017
  612.72023 |                                                              0.000
  625.48524 |                                                              0.000
  638.25024 |                                                              0.000
  651.01525 |************************                                      0.033
  663.78025 |                                                              0.000
  676.54526 |************************                                      0.033
  689.31026 |                                                              0.000
  702.07527 |                                                              0.000
  714.84027 |                                                              0.000
  727.60528 |                                                              0.000
  740.37028 |                                                              0.000
  753.13529 |                                                              0.000
  765.90029 |                                                              0.000
  778.66530 |                                                              0.000
  791.43030 |************************************                          0.050
  804.19531 |************                                                  0.017
--------------------------------------------------------------------------------



  Time to end of optimisation =       1.6719 seconds


********************************************************************************
*  Output for configuration   2 : CaSr(TiO3)2                                  *
********************************************************************************


  Components of energy : 

--------------------------------------------------------------------------------
  Interatomic potentials     =          82.40857868 eV
  Monopole - monopole (real) =        -333.31948584 eV
  Monopole - monopole (recip)=        -400.64827490 eV
  Monopole - monopole (total)=        -733.96776074 eV
  Dispersion (real+recip)    =          -3.87599781 eV
--------------------------------------------------------------------------------
  Total lattice energy       =        -655.43517987 eV
--------------------------------------------------------------------------------
  Total lattice energy       =          -63239.4756 kJ/(mole unit cells)
--------------------------------------------------------------------------------


  Number of variables =       93

  Maximum number of calculations  =          1000
  Maximum Hessian update interval =            10
  Maximum step size               =   1.000000000
  Maximum parameter tolerance     =   0.000010000
  Maximum function  tolerance     =   0.000010000
  Maximum gradient  tolerance     =   0.001000000
  Maximum gradient  component     =   0.010000000

  Newton-Raphson optimiser to be used

  BFGS hessian update to be used

  Start of bulk optimisation :

  Cycle:      0 Energy:      -655.435180  Gnorm:      0.749131  CPU:    1.684
  ** Hessian calculated **
  Cycle:      1 Energy:      -656.612352  Gnorm:      0.085940  CPU:    1.701
  Cycle:      2 Energy:      -656.673124  Gnorm:      0.051023  CPU:    1.716
  Cycle:      3 Energy:      -656.724075  Gnorm:      0.040804  CPU:    1.731
  Cycle:      4 Energy:      -656.737759  Gnorm:      0.016674  CPU:    1.743
  Cycle:      5 Energy:      -656.739983  Gnorm:      0.010571  CPU:    1.755
  Cycle:      6 Energy:      -656.740230  Gnorm:      0.001698  CPU:    1.767
  Cycle:      7 Energy:      -656.740249  Gnorm:      0.000956  CPU:    1.779


  **** Optimisation achieved ****


  Final energy =    -656.74025397 eV
  Final Gnorm  =       0.00044429

  Components of energy : 

--------------------------------------------------------------------------------
  Interatomic potentials     =          84.72337160 eV
  Monopole - monopole (real) =        -155.22489986 eV
  Monopole - monopole (recip)=        -582.24168553 eV
  Monopole - monopole (total)=        -737.46658538 eV
  Dispersion (real+recip)    =          -3.99704019 eV
--------------------------------------------------------------------------------
  Total lattice energy       =        -656.74025397 eV
--------------------------------------------------------------------------------
  Total lattice energy       =          -63365.3953 kJ/(mole unit cells)
--------------------------------------------------------------------------------

  Final fractional coordinates of atoms :

--------------------------------------------------------------------------------
   No.  Atomic        x           y          z          Radius
        Label       (Frac)      (Frac)     (Frac)       (Angs) 
--------------------------------------------------------------------------------
     1  Ca    c     0.950000    0.263000    0.250000    0.000000
     2  Ca    c     0.450000    0.763101    0.750000    0.000000
     3  Sr    c     0.449969    0.763061    0.250000    0.000000
     4  Sr    c     0.949969    0.263040    0.750000    0.000000
     5  Ti    c     0.949995    0.763046    0.999997    0.000000
     6  Ti    c     0.449995    0.263055    0.000003    0.000000
     7  Ti    c     0.449995    0.263055    0.499997    0.000000
     8  Ti    c     0.949995    0.763046    0.500003    0.000000
     9  O1    c     0.950058    0.763062    0.250000    0.000000
    10  O1    c     0.450058    0.263039    0.750000    0.000000
    11  O2    c     0.199939    0.013110    0.999988    0.000000
    12  O2    c     0.699939    0.012991    0.000012    0.000000
    13  O2    c     0.699939    0.012991    0.499988    0.000000
    14  O2    c     0.199939    0.013110    0.500012    0.000000
    15  O3    c     0.949974    0.763061    0.750000    0.000000
    16  O3    c     0.449974    0.263040    0.250000    0.000000
    17  O4    c     0.700045    0.513002    0.000020    0.000000
    18  O4    c     0.200045    0.513099    0.999980    0.000000
    19  O4    c     0.200045    0.513099    0.500020    0.000000
    20  O4    c     0.700045    0.513002    0.499980    0.000000
    21  O1    s     0.950055    0.763062    0.250000    0.000000
    22  O1    s     0.450055    0.263039    0.750000    0.000000
    23  O2    s     0.199945    0.013104    0.999987    0.000000
    24  O2    s     0.699945    0.012997    0.000013    0.000000
    25  O2    s     0.699945    0.012997    0.499987    0.000000
    26  O2    s     0.199945    0.013104    0.500013    0.000000
    27  O3    s     0.949975    0.763061    0.750000    0.000000
    28  O3    s     0.449975    0.263040    0.250000    0.000000
    29  O4    s     0.700044    0.513005    0.000016    0.000000
    30  O4    s     0.200044    0.513096    0.999984    0.000000
    31  O4    s     0.200044    0.513096    0.500016    0.000000
    32  O4    s     0.700044    0.513005    0.499984    0.000000
--------------------------------------------------------------------------------

  Final internal derivatives :

--------------------------------------------------------------------------------
   No.  Atomic          a             b             c           Radius
        Label          (eV)          (eV)          (eV)        (eV/Angs)
--------------------------------------------------------------------------------
      1 Ca    c       0.000000      0.000000      0.000000      0.000000
      2 Ca    c       0.001212      0.006123      0.000000      0.000000
      3 Sr    c      -0.000633      0.001917      0.000000      0.000000
      4 Sr    c      -0.000633     -0.001917     -0.000000      0.000000
      5 Ti    c      -0.003174      0.004651     -0.008903      0.000000
      6 Ti    c      -0.003174     -0.004651      0.008903      0.000000
      7 Ti    c      -0.003174     -0.004651     -0.008903      0.000000
      8 Ti    c      -0.003174      0.004651      0.008903      0.000000
      9 O1    c      -0.000854      0.003659      0.000000      0.000000
     10 O1    c      -0.000854     -0.003659      0.000000      0.000000
     11 O2    c      -0.001446      0.004969      0.006031      0.000000
     12 O2    c      -0.001446     -0.004969     -0.006031      0.000000
     13 O2    c      -0.001446     -0.004969      0.006031      0.000000
     14 O2    c      -0.001446      0.004969     -0.006031      0.000000
     15 O3    c      -0.001136      0.000497      0.000000      0.000000
     16 O3    c      -0.001136     -0.000497     -0.000000      0.000000
     17 O4    c      -0.001840      0.001162      0.007681      0.000000
     18 O4    c      -0.001840     -0.001162     -0.007681      0.000000
     19 O4    c      -0.001840     -0.001162      0.007681      0.000000
     20 O4    c      -0.001840      0.001162     -0.007681      0.000000
     21 O1    s       0.005784     -0.007205     -0.000000      0.000000
     22 O1    s       0.005784      0.007205     -0.000000      0.000000
     23 O2    s       0.000605     -0.003908     -0.005415      0.000000
     24 O2    s       0.000605      0.003908      0.005415      0.000000
     25 O2    s       0.000605      0.003908     -0.005415      0.000000
     26 O2    s       0.000605     -0.003908      0.005415      0.000000
     27 O3    s       0.003020     -0.000751      0.000000      0.000000
     28 O3    s       0.003020      0.000751      0.000000      0.000000
     29 O4    s       0.002158     -0.002587     -0.008095      0.000000
     30 O4    s       0.002158      0.002587      0.008095      0.000000
     31 O4    s       0.002158      0.002587     -0.008095      0.000000
     32 O4    s       0.002158     -0.002587      0.008095      0.000000
--------------------------------------------------------------------------------
  Maximum abs         0.005784      0.007205      0.008903      0.000000
--------------------------------------------------------------------------------


  Born effective charge tensors : 

-------------------------------------------------------------------------------
  Atom             x           y             z
-------------------------------------------------------------------------------
   1 Ca    x       2.3427     -0.0001      0.0000
           y      -0.0001      2.3428      0.0000
           z      -0.0000      0.0000      2.3426
-------------------------------------------------------------------------------
   2 Ca    x       2.3427      0.0001      0.0000
           y       0.0001      2.3428      0.0000
           z      -0.0000      0.0000      2.3426
-------------------------------------------------------------------------------
   3 Sr    x       2.3322      0.0000     -0.0000
           y       0.0000      2.3322      0.0000
           z       0.0000     -0.0000      2.3319
-------------------------------------------------------------------------------
   4 Sr    x       2.3322     -0.0000     -0.0000
           y      -0.0000      2.3322      0.0000
           z       0.0000     -0.0000      2.3319
-------------------------------------------------------------------------------
   5 Ti    x       3.6779      0.0002     -0.0000
           y      -0.0002      3.6779      0.0000
           z       0.0002     -0.0000      3.6666
-------------------------------------------------------------------------------
   6 Ti    x       3.6779     -0.0002      0.0000
           y       0.0002      3.6779      0.0000
           z      -0.0002     -0.0000      3.6666
-------------------------------------------------------------------------------
   7 Ti    x       3.6779     -0.0002     -0.0000
           y       0.0002      3.6779     -0.0000
           z       0.0002      0.0000      3.6666
-------------------------------------------------------------------------------
   8 Ti    x       3.6779      0.0002      0.0000
           y      -0.0002      3.6779     -0.0000
           z      -0.0002      0.0000      3.6666
-------------------------------------------------------------------------------
   9 O1    x      -1.6698     -0.0001     -0.0000
           y       0.0001     -1.6612     -0.0000
           z       0.0000      0.0000     -2.6743
-------------------------------------------------------------------------------
  10 O1    x      -1.6698      0.0001     -0.0000
           y      -0.0001     -1.6612     -0.0000
           z       0.0000      0.0000     -2.6743
-------------------------------------------------------------------------------
  11 O2    x      -2.1750     -0.5088     -0.0030
           y      -0.5088     -2.1749      0.0030
           z      -0.0030      0.0030     -1.6649
-------------------------------------------------------------------------------
  12 O2    x      -2.1750      0.5088      0.0030
           y       0.5088     -2.1749      0.0030
           z       0.0030      0.0030     -1.6649
-------------------------------------------------------------------------------
  13 O2    x      -2.1750      0.5088     -0.0030
           y       0.5088     -2.1749     -0.0030
           z      -0.0030     -0.0030     -1.6649
-------------------------------------------------------------------------------
  14 O2    x      -2.1750     -0.5088      0.0030
           y      -0.5088     -2.1749     -0.0030
           z       0.0030     -0.0030     -1.6649
-------------------------------------------------------------------------------
  15 O3    x      -1.6611     -0.0001      0.0000
           y       0.0001     -1.6698     -0.0000
           z      -0.0000     -0.0000     -2.6739
-------------------------------------------------------------------------------
  16 O3    x      -1.6611      0.0001      0.0000
           y      -0.0001     -1.6698     -0.0000
           z      -0.0000     -0.0000     -2.6739
-------------------------------------------------------------------------------
  17 O4    x      -2.1749     -0.5087      0.0030
           y      -0.5087     -2.1750     -0.0030
           z       0.0030     -0.0030     -1.6648
-------------------------------------------------------------------------------
  18 O4    x      -2.1749      0.5087     -0.0030
           y       0.5087     -2.1750     -0.0030
           z      -0.0030     -0.0030     -1.6648
-------------------------------------------------------------------------------
  19 O4    x      -2.1749      0.5087      0.0030
           y       0.5087     -2.1750      0.0030
           z       0.0030      0.0030     -1.6648
-------------------------------------------------------------------------------
  20 O4    x      -2.1749     -0.5087     -0.0030
           y      -0.5087     -2.1750      0.0030
           z      -0.0030      0.0030     -1.6648
-------------------------------------------------------------------------------




  Elastic Constant Matrix: (Units=GPa)

-------------------------------------------------------------------------------
  Indices      1         2         3         4         5         6    
-------------------------------------------------------------------------------
       1    446.1181   89.7609  141.1737   -0.0000    0.0000   -0.0000
       2     89.7609  446.1180  141.1737    0.0000    0.0000   -0.0000
       3    141.1737  141.1737  396.7276    0.0000   -0.0000   -0.0000
       4     -0.0000    0.0000    0.0000  177.9580   -0.0000    0.0000
       5      0.0000    0.0000   -0.0000   -0.0000  177.9580   -0.0000
       6     -0.0000   -0.0000   -0.0000    0.0000   -0.0000  126.6399
-------------------------------------------------------------------------------


  Elastic Compliance Matrix: (Units=1/GPa)

-------------------------------------------------------------------------------
  Indices      1         2         3         4         5         6    
-------------------------------------------------------------------------------
       1    0.002551 -0.000255 -0.000817  0.000000 -0.000000  0.000000
       2   -0.000255  0.002551 -0.000817 -0.000000 -0.000000  0.000000
       3   -0.000817 -0.000817  0.003102 -0.000000  0.000000  0.000000
       4    0.000000 -0.000000 -0.000000  0.005619  0.000000 -0.000000
       5   -0.000000 -0.000000  0.000000  0.000000  0.005619  0.000000
       6    0.000000  0.000000  0.000000 -0.000000  0.000000  0.007896
[...]
           z      -0.0000     -0.0000     -1.6416
-------------------------------------------------------------------------------
  19 O2    x      -2.0653      0.4387      0.0000
           y       0.4245     -2.0868     -0.0000
           z       0.0000      0.0000     -1.6416
-------------------------------------------------------------------------------
  20 O2    x      -2.0653     -0.4387     -0.0000
           y      -0.4245     -2.0868     -0.0000
           z      -0.0000      0.0000     -1.6416
-------------------------------------------------------------------------------




  Elastic Constant Matrix: (Units=GPa)

-------------------------------------------------------------------------------
  Indices      1         2         3         4         5         6    
-------------------------------------------------------------------------------
       1    478.0635  117.0871  156.7347   -0.0000    0.0000    0.0000
       2    117.0871  485.0472  152.4820   -0.0000   -0.0000   -0.0000
       3    156.7347  152.4820  448.1604   -0.0000    0.0000    0.0000
       4     -0.0000   -0.0000   -0.0000  180.5488    0.0000   -0.0000
       5      0.0000   -0.0000    0.0000    0.0000  182.6671   -0.0000
       6      0.0000   -0.0000    0.0000   -0.0000   -0.0000  144.3085
-------------------------------------------------------------------------------


  Elastic Compliance Matrix: (Units=1/GPa)

-------------------------------------------------------------------------------
  Indices      1         2         3         4         5         6    
-------------------------------------------------------------------------------
       1    0.002416 -0.000356 -0.000724 -0.000000 -0.000000 -0.000000
       2   -0.000356  0.002361 -0.000679  0.000000  0.000000  0.000000
       3   -0.000724 -0.000679  0.002716  0.000000 -0.000000 -0.000000
       4   -0.000000  0.000000  0.000000  0.005539 -0.000000  0.000000
       5   -0.000000  0.000000 -0.000000 -0.000000  0.005474  0.000000
       6   -0.000000  0.000000 -0.000000  0.000000  0.000000  0.006930
-------------------------------------------------------------------------------

  Mechanical properties :

-------------------------------------------------------------------------------
  Convention :                    Reuss         Voigt         Hill
-------------------------------------------------------------------------------
  Bulk  Modulus (GPa)     =     251.53654     251.54206     251.53930
  Shear Modulus (GPa)     =     165.13759     167.16940     166.15350
-------------------------------------------------------------------------------
  Velocity S-wave (km/s)  =       6.39458       6.43380       6.41422
  Velocity P-wave (km/s)  =      10.80765      10.83870      10.82318
-------------------------------------------------------------------------------
  Compressibility (1/GPa) =    0.00397557
-------------------------------------------------------------------------------
  Stress axis :                     x             y             z
-------------------------------------------------------------------------------
  Youngs Moduli (GPa)     =     413.86379     423.56182     368.25030
-------------------------------------------------------------------------------
  Poissons Ratio (x)      =                     0.15064       0.26662
  Poissons Ratio (y)      =       0.14719                     0.25000
  Poissons Ratio (z)      =       0.29965       0.28756
-------------------------------------------------------------------------------


  Piezoelectric Strain Matrix: (Units=C/m**2)

-------------------------------------------------------------------------------
  Indices      1         2         3         4         5         6    
-------------------------------------------------------------------------------
       x    -0.00000   0.00000  -0.00000   0.00000   0.00000  -0.00000
       y    -0.00000  -0.00000   0.00000   0.00000   0.00000  -0.00000
       z     0.00000   0.00000   0.00000   0.00000  -0.00000  -0.00000
-------------------------------------------------------------------------------


  Piezoelectric Stress Matrix: (Units=10**-11 C/N)

-------------------------------------------------------------------------------
  Indices      1         2         3         4         5         6    
-------------------------------------------------------------------------------
       x     0.00000   0.00000  -0.00000   0.00000   0.00000  -0.00000
       y    -0.00000  -0.00000   0.00000   0.00000   0.00000  -0.00000
       z    -0.00000  -0.00000   0.00000   0.00000  -0.00000  -0.00000
-------------------------------------------------------------------------------


  Static dielectric constant tensor : 

-------------------------------------------------------------------------------
              x         y         z
-------------------------------------------------------------------------------
       x    16.81756   0.00000   0.00000
       y     0.00000  19.33869  -0.00000
       z     0.00000  -0.00000  17.68007
--------------------------------------------------------------------------------

  High frequency dielectric constant tensor : 

-------------------------------------------------------------------------------
              x         y         z
-------------------------------------------------------------------------------
       x     2.54567   0.00000   0.00000
       y     0.00000   2.54691  -0.00000
       z     0.00000  -0.00000   2.54176
-------------------------------------------------------------------------------

  Static refractive indices : 

-------------------------------------------------------------------------------
    1 =    4.10092      2 =    4.20477      3 =    4.39758
-------------------------------------------------------------------------------

  High frequency refractive indices : 

-------------------------------------------------------------------------------
    1 =    1.59429      2 =    1.59552      3 =    1.59591
-------------------------------------------------------------------------------


  Phonon Calculation : 

  Number of k points for this configuration =        8

--------------------------------------------------------------------------------
 (Core) Atomic information:
--------------------------------------------------------------------------------
Atom  1(Ca):
  Mass     =  0.6656E-25 kg
  bbar     =  0.4760E-04 Ang
  sigma_inc     =  0.4276E-09 Ang^2
  Sigma_coh     =  0.2847E-07 Ang^2
  Cartesian  position =   5.34085050    0.17958270    1.91000000  Ang
  Fractional position =   0.99300000    0.03300000    0.25000000
Atom  2(Ca):
  Mass     =  0.6656E-25 kg
  bbar     =  0.4760E-04 Ang
  sigma_inc     =  0.4276E-09 Ang^2
  Sigma_coh     =  0.2847E-07 Ang^2
  Cartesian  position =   2.65160050    2.90063553    5.73000000  Ang
  Fractional position =   0.49300000    0.53301890    0.75000000
Atom  3(Ca):
  Mass     =  0.6656E-25 kg
  bbar     =  0.4760E-04 Ang
  sigma_inc     =  0.4276E-09 Ang^2
  Sigma_coh     =  0.2847E-07 Ang^2
  Cartesian  position =   2.65147835    2.90053270    1.91000000  Ang
  Fractional position =   0.49297729    0.53300000    0.25000000
Atom  4(Ca):
  Mass     =  0.6656E-25 kg
  bbar     =  0.4760E-04 Ang
  sigma_inc     =  0.4276E-09 Ang^2
  Sigma_coh     =  0.2847E-07 Ang^2
  Cartesian  position =   5.34072835    0.17968553    5.73000000  Ang
  Fractional position =   0.99297729    0.03301890    0.75000000
Atom  5(Ti):
  Mass     =  0.7951E-25 kg
  bbar     = -0.3438E-04 Ang
  sigma_inc     =  0.2865E-07 Ang^2
  Sigma_coh     =  0.1485E-07 Ang^2
  Cartesian  position =   5.34078943    2.90058412    7.64000000  Ang
  Fractional position =   0.99298864    0.53300945    1.00000000
Atom  6(Ti):
  Mass     =  0.7951E-25 kg
  bbar     = -0.3438E-04 Ang
  sigma_inc     =  0.2865E-07 Ang^2
  Sigma_coh     =  0.1485E-07 Ang^2
  Cartesian  position =   2.65153943    0.17963412    7.64000000  Ang
  Fractional position =   0.49298864    0.03300945    1.00000000
Atom  7(Ti):
  Mass     =  0.7951E-25 kg
  bbar     = -0.3438E-04 Ang
  sigma_inc     =  0.2865E-07 Ang^2
  Sigma_coh     =  0.1485E-07 Ang^2
  Cartesian  position =   2.65153943    0.17963412    3.82000000  Ang
  Fractional position =   0.49298864    0.03300945    0.50000000
Atom  8(Ti):
  Mass     =  0.7951E-25 kg
  bbar     = -0.3438E-04 Ang
  sigma_inc     =  0.2865E-07 Ang^2
  Sigma_coh     =  0.1485E-07 Ang^2
  Cartesian  position =   5.34078943    2.90058412    3.82000000  Ang
  Fractional position =   0.99298864    0.53300945    0.50000000
Atom  9(O1):
  Mass     =  0.2657E-25 kg
  bbar     =  0.5803E-04 Ang
  sigma_inc     =  0.2987E-11 Ang^2
  Sigma_coh     =  0.4232E-07 Ang^2
  Cartesian  position =   5.34057170    2.90054581    1.91000000  Ang
  Fractional position =   0.99294816    0.53300241    0.25000000
Atom 10(O1):
  Mass     =  0.2657E-25 kg
  bbar     =  0.5803E-04 Ang
  sigma_inc     =  0.2987E-11 Ang^2
  Sigma_coh     =  0.4232E-07 Ang^2
  Cartesian  position =   2.65132170    0.17967242    5.73000000  Ang
  Fractional position =   0.49294816    0.03301649    0.75000000
Atom 11(O1):
  Mass     =  0.2657E-25 kg
  bbar     =  0.5803E-04 Ang
  sigma_inc     =  0.2987E-11 Ang^2
  Sigma_coh     =  0.4232E-07 Ang^2
  Cartesian  position =   2.65175716    0.17959581    1.91000000  Ang
  Fractional position =   0.49302913    0.03300241    0.25000000
Atom 12(O1):
  Mass     =  0.2657E-25 kg
  bbar     =  0.5803E-04 Ang
  sigma_inc     =  0.2987E-11 Ang^2
  Sigma_coh     =  0.4232E-07 Ang^2
  Cartesian  position =   5.34100716    2.90062242    5.73000000  Ang
  Fractional position =   0.99302913    0.53301649    0.75000000
Atom 13(O2):
  Mass     =  0.2657E-25 kg
  bbar     =  0.5803E-04 Ang
  sigma_inc     =  0.2987E-11 Ang^2
  Sigma_coh     =  0.4232E-07 Ang^2
  Cartesian  position =   3.99629120    1.53998100    7.63980552  Ang
  Fractional position =   0.74301222    0.28298590    0.99997454
Atom 14(O2):
  Mass     =  0.2657E-25 kg
  bbar     =  0.5803E-04 Ang
  sigma_inc     =  0.2987E-11 Ang^2
  Sigma_coh     =  0.4232E-07 Ang^2
  Cartesian  position =   1.30704120    1.54023724    0.00019448  Ang
  Fractional position =   0.24301222    0.28303299    0.00002546
Atom 15(O2):
  Mass     =  0.2657E-25 kg
  bbar     =  0.5803E-04 Ang
  sigma_inc     =  0.2987E-11 Ang^2
  Sigma_coh     =  0.4232E-07 Ang^2
  Cartesian  position =   3.99603765    4.26093100    3.82019448  Ang
  Fractional position =   0.74296507    0.78298590    0.50002546
Atom 16(O2):
  Mass     =  0.2657E-25 kg
  bbar     =  0.5803E-04 Ang
  sigma_inc     =  0.2987E-11 Ang^2
  Sigma_coh     =  0.4232E-07 Ang^2
  Cartesian  position =   1.30678765    4.26118724    3.81980552  Ang
  Fractional position =   0.24296507    0.78303299    0.49997454
Atom 17(O2):
  Mass     =  0.2657E-25 kg
  bbar     =  0.5803E-04 Ang
  sigma_inc     =  0.2987E-11 Ang^2
  Sigma_coh     =  0.4232E-07 Ang^2
  Cartesian  position =   1.30678765    4.26118724    0.00019448  Ang
  Fractional position =   0.24296507    0.78303299    0.00002546
Atom 18(O2):
  Mass     =  0.2657E-25 kg
  bbar     =  0.5803E-04 Ang
  sigma_inc     =  0.2987E-11 Ang^2
  Sigma_coh     =  0.4232E-07 Ang^2
  Cartesian  position =   3.99603765    4.26093100    7.63980552  Ang
  Fractional position =   0.74296507    0.78298590    0.99997454
Atom 19(O2):
  Mass     =  0.2657E-25 kg
  bbar     =  0.5803E-04 Ang
  sigma_inc     =  0.2987E-11 Ang^2
  Sigma_coh     =  0.4232E-07 Ang^2
  Cartesian  position =   1.30704120    1.54023724    3.81980552  Ang
  Fractional position =   0.24301222    0.28303299    0.49997454
Atom 20(O2):
  Mass     =  0.2657E-25 kg
  bbar     =  0.5803E-04 Ang
  sigma_inc     =  0.2987E-11 Ang^2
  Sigma_coh     =  0.4232E-07 Ang^2
  Cartesian  position =   3.99629120    1.53998100    3.82019448  Ang
  Fractional position =   0.74301222    0.28298590    0.50002546
--------------------------------------------------------------------------------
  Start of PDF calculation
--------------------------------------------------------------------------------

  PDF information:

  Maximum radius        =  6.000 Ang
  Number density        =  0.089 Ang(^-3)
  (Sum{c_i bbar_i} )^2  =  0.1403E-08

  Using primitive cell parameters   5.3785   5.4419   7.6400
  Testing primitive vectors with x,y,z=-(n+1) to n, n=    2
[width output suppressed by keyword nowidth]
  PDF statistics:

  Maximum width^2  was  0.2466E-01 Ang^2
  Number of pairs      1480
  Angular frequency range used:
   0.212015E+14 to  0.160263E+15 rad/s 
   0.337432E+01 to  0.255066E+02 THz   

  PDF output being written to example46_CaTio3.pdfs
--------------------------------------------------------------------------------
  End of PDF calculation
--------------------------------------------------------------------------------

--------------------------------------------------------------------------------
  Phonon properties (per mole of unit cells): Temperature =      0.000 K
--------------------------------------------------------------------------------
  Zero point energy            =        1.452452 eV
--------------------------------------------------------------------------------

  Phonon density of states : 

--------------------------------------------------------------------------------
 Frequency (cm-1) Density of States                                             
--------------------------------------------------------------------------------
    0.00000 |                                                              0.000
   13.29387 |                                                              0.000
   26.58775 |                                                              0.000
   39.88162 |                                                              0.000
   53.17550 |                                                              0.000
   66.46937 |                                                              0.000
   79.76324 |                                                              0.000
   93.05712 |                                                              0.000
  106.35099 |************                                                  0.017
  119.64486 |************                                                  0.017
  132.93874 |************************                                      0.033
  146.23261 |************************************************************  0.083
  159.52649 |************************                                      0.033
  172.82036 |************************************************************  0.083
  186.11423 |************                                                  0.017
  199.40811 |************************************                          0.050
  212.70198 |                                                              0.000
  225.99585 |************                                                  0.017
  239.28973 |                                                              0.000
  252.58360 |************************************                          0.050
  265.87748 |                                                              0.000
  279.17135 |************************                                      0.033
  292.46522 |************************                                      0.033
  305.75910 |************                                                  0.017
  319.05297 |************                                                  0.017
  332.34684 |                                                              0.000
  345.64072 |                                                              0.000
  358.93459 |************                                                  0.017
  372.22847 |************                                                  0.017
  385.52234 |************                                                  0.017
  398.81621 |************************************************              0.067
  412.11009 |************                                                  0.017
  425.40396 |                                                              0.000
  438.69783 |************                                                  0.017
  451.99171 |************************                                      0.033
  465.28558 |                                                              0.000
  478.57946 |                                                              0.000
  491.87333 |                                                              0.000
  505.16720 |************                                                  0.017
  518.46108 |************                                                  0.017
  531.75495 |                                                              0.000
  545.04883 |                                                              0.000
  558.34270 |************************                                      0.033
  571.63657 |                                                              0.000
  584.93045 |                                                              0.000
  598.22432 |************************************                          0.050
  611.51819 |************                                                  0.017
  624.81207 |                                                              0.000
  638.10594 |************                                                  0.017
  651.39982 |************************                                      0.033
  664.69369 |                                                              0.000
  677.98756 |                                                              0.000
  691.28144 |                                                              0.000
  704.57531 |************************                                      0.033
  717.86918 |                                                              0.000
  731.16306 |************************                                      0.033
  744.45693 |                                                              0.000
  757.75081 |                                                              0.000
  771.04468 |                                                              0.000
  784.33855 |                                                              0.000
  797.63243 |                                                              0.000
  810.92630 |************                                                  0.017
  824.22017 |************************                                      0.033
  837.51405 |************                                                  0.017
--------------------------------------------------------------------------------



  Time to end of optimisation =       3.9725 seconds


  Peak dynamic memory used =       1.11 MB 


  Timing analysis for GULP :

--------------------------------------------------------------------------------
  Task / Subroutine                                          Time (Seconds)
--------------------------------------------------------------------------------
  Calculation of reciprocal space energy and derivatives          1.1689
  Calculation of real space energy and derivatives                2.1040
  Calculation of phonons                                          1.2528
  Calculation of scattering                                       0.0000
  Calculation of matrix inversion                                 0.0116
  Symmetry generation of equivalent positions                     0.0009
  Global summation overhead                                       0.0008
--------------------------------------------------------------------------------
  Total CPU time                                                  3.9725
--------------------------------------------------------------------------------


  Job Finished at 11:00.38  8th October    2013                               

